
  ___ ___ ___ _ _ _  
 |   |   |_  | | | | 
 | | | | | . | | | | 
 |__ |  _|___|_____|  22.8.0
 |___|_|             

User:   vazumah@f005
Date:   Fri Dec 30 18:26:14 2022
Arch:   x86_64
Pid:    6558
CWD:    /home/vazumah/Python_Projects/Li_NRR/Li_adsorb_studies/autocat/multi_adsorbates/adsorbates/N/bridge/0.0_1.617
Python: 3.10.6
gpaw:   /home/vazumah/anaconda3/envs/NAME/lib/python3.10/site-packages/gpaw
_gpaw:  /home/vazumah/anaconda3/envs/NAME/lib/python3.10/site-packages/
        _gpaw.cpython-310-x86_64-linux-gnu.so
ase:    /home/vazumah/anaconda3/envs/NAME/lib/python3.10/site-packages/ase (version 3.22.1)
numpy:  /home/vazumah/anaconda3/envs/NAME/lib/python3.10/site-packages/numpy (version 1.23.3)
scipy:  /home/vazumah/anaconda3/envs/NAME/lib/python3.10/site-packages/scipy (version 1.9.1)
libxc:  5.2.3
units:  Angstrom and eV
cores: 32
OpenMP: True
OMP_NUM_THREADS: 1

Reading from output.gpw
Reading input parameters:
  h: 0.16
  kpts: {size: [4, 4, 1]}
  occupations: {name: fermi-dirac,
                width: 0.05}
  poissonsolver: {dipolelayer: xy}
  xc: BEEF-vdW

Initialize ...

species:
  Li:
    name: Lithium
    id: 830b4218f175192f93f959cfc0aad614
    Z: 3.0
    valence: 1
    core: 2
    charge: 0.0
    file: /home/vazumah/anaconda3/envs/NAME/share/gpaw/Li.PBE.gz
    compensation charges: {type: gauss,
                           rc: 0.33,
                           lmax: 2}
    cutoffs: {filter: 1.91,
              core: 2.55}
    valence states:
      #              energy  rcut
      - 2s(1.00)    -2.874   1.058
      - 2p(0.00)    -1.090   1.058
      -  s          24.337   1.058
  
    # Using partial waves for Li as LCAO basis

  N:
    name: Nitrogen
    id: f7500608b86eaa90eef8b1d9a670dc53
    Z: 7.0
    valence: 5
    core: 2
    charge: 0.0
    file: /home/vazumah/anaconda3/envs/NAME/share/gpaw/N.PBE.gz
    compensation charges: {type: gauss,
                           rc: 0.18,
                           lmax: 2}
    cutoffs: {filter: 1.11,
              core: 0.96}
    valence states:
      #              energy  rcut
      - 2s(2.00)   -18.583   0.603
      - 2p(3.00)    -7.089   0.529
      -  s           8.629   0.603
      -  p          20.123   0.529
      -  d           0.000   0.577
  
    # Using partial waves for N as LCAO basis

Reference energy: -10263.804537  # eV

Spin-paired calculation

Convergence criteria:
 Maximum [total energy] change in last 3 cyles: 0.0005 eV / electron
 Maximum integral of absolute [dens]ity change: 0.0001 electrons / valence electron
 Maximum integral of absolute [eigenst]ate change: 4e-08 eV^2 / valence electron
 Maximum number of scf [iter]ations: 333
 (Square brackets indicate name in SCF output, whereas a 'c' in
 the SCF output indicates the quantity has converged.)

Symmetries present (total): 1

  ( 1  0  0)
  ( 0  1  0)
  ( 0  0  1)

16 k-points: 4 x 4 x 1 Monkhorst-Pack grid
8 k-points in the irreducible part of the Brillouin zone
       k-points in crystal coordinates                weights
   0:     0.12500000   -0.37500000    0.00000000          2/16
   1:     0.12500000   -0.12500000    0.00000000          2/16
   2:     0.12500000    0.12500000    0.00000000          2/16
   3:     0.12500000    0.37500000    0.00000000          2/16
   4:     0.37500000   -0.37500000    0.00000000          2/16
   5:     0.37500000   -0.12500000    0.00000000          2/16
   6:     0.37500000    0.12500000    0.00000000          2/16
   7:     0.37500000    0.37500000    0.00000000          2/16

Wave functions: Uniform real-space grid
  Kinetic energy operator: 6*3+1=19 point O(h^6) finite-difference Laplacian
  ScaLapack parameters: grid=1x1, blocksize=None
  Wavefunction extrapolation:
    Improved wavefunction reuse through dual PAW basis 

Occupation numbers: Fermi-Dirac:
  width: 0.0500  # eV
 

Eigensolver
   Davidson(niter=2) 

Densities:
  Coarse grid: 60*60*156 grid
  Fine grid: 120*120*312 grid
  Total Charge: 0.000000 

Density mixing:
  Method: separate
  Backend: pulay
  Linear mixing parameter: 0.05
  old densities: 5
  Damping of long wavelength oscillations: 50 

Hamiltonian:
  XC and Coulomb potentials evaluated on a 120*120*312 grid
  Using the BEEF-vdW Exchange-Correlation functional
  Interpolation: tri-quintic (5. degree polynomial)
  Poisson solver: FastPoissonSolver using
    Stencil: 6*3+1=19 point O(h^6) finite-difference Laplacian
    FFT axes: [0, 1]
    FST axes: [2]

Dipole correction along z-axis 

XC parameters: BEEF-vdW with 2 nearest neighbor stencil

Memory estimate:
  Process memory now: 212.25 MiB
  Calculator: 255.18 MiB
    Density: 86.68 MiB
      Arrays: 27.47 MiB
      Localized functions: 48.78 MiB
      Mixer: 10.44 MiB
    Hamiltonian: 21.82 MiB
      Arrays: 17.96 MiB
      XC: 0.00 MiB
      Poisson: 0.00 MiB
      vbar: 3.86 MiB
    Wavefunctions: 146.67 MiB
      Arrays psit_nG: 66.80 MiB
      Eigensolver: 77.39 MiB
      Projections: 0.03 MiB
      Projectors: 2.46 MiB

Total number of cores used: 32
Parallelization over k-points: 8
Domain decomposition: 1 x 1 x 4

Number of atoms: 38
Number of atomic orbitals: 152
Number of bands in calculation: 32
Number of valence electrons: 46
Bands to converge: occupied

... initialized

Initializing position-dependent things.

Creating initial wave functions:
  32 bands from LCAO basis set

       .-----------------------.  
      /|                       |  
     / |                       |  
    /  |                       |  
   /   |                       |  
  /    |                       |  
 *     |                       |  
 |     |                       |  
 |     |                       |  
 |     |                       |  
 |     |                       |  
 |     |                       |  
 |     |                    Li |  
 |     |              Li       |  
 |   Li|     Li                |  
 |     |  Li       Li     Li   |  
 |     |   Li              Li  |  
 |   Li|Li      Li      Li     |  
 |N    |                       |  
 |   Li|     LLi     LLi       |  
 |     |  Li      Li      Li   |  
 | Li  |   Li      Li          |  
 |     |Li      Li      Li     |  
 Li    | Li      Li            |  
 |    Li      Li      Li       |  
 |     |                       |  
 |     |                       |  
 |     |                       |  
 |     |                       |  
 |     |                       |  
 |     |                       |  
 |     .-----------------------.  
 |    /                       /   
 |   /                       /    
 |  /                       /     
 | /                       /      
 |/                       /       
 *-----------------------*        

Positions:
   0 Li     1.617037    1.617037   10.000000    ( 0.0000,  0.0000,  0.0000)
   1 Li     4.851111    1.617037   10.000000    ( 0.0000,  0.0000,  0.0000)
   2 Li     8.085185    1.617037   10.000000    ( 0.0000,  0.0000,  0.0000)
   3 Li     1.617037    4.851111   10.000000    ( 0.0000,  0.0000,  0.0000)
   4 Li     4.851111    4.851111   10.000000    ( 0.0000,  0.0000,  0.0000)
   5 Li     8.085185    4.851111   10.000000    ( 0.0000,  0.0000,  0.0000)
   6 Li     1.617037    8.085185   10.000000    ( 0.0000,  0.0000,  0.0000)
   7 Li     4.851111    8.085185   10.000000    ( 0.0000,  0.0000,  0.0000)
   8 Li     8.085185    8.085185   10.000000    ( 0.0000,  0.0000,  0.0000)
   9 Li     0.000000    0.000000   11.617037    ( 0.0000,  0.0000,  0.0000)
  10 Li     3.234074    0.000000   11.617037    ( 0.0000,  0.0000,  0.0000)
  11 Li     6.468148    0.000000   11.617037    ( 0.0000,  0.0000,  0.0000)
  12 Li     0.000000    3.234074   11.617037    ( 0.0000,  0.0000,  0.0000)
  13 Li     3.234074    3.234074   11.617037    ( 0.0000,  0.0000,  0.0000)
  14 Li     6.468148    3.234074   11.617037    ( 0.0000,  0.0000,  0.0000)
  15 Li     0.000000    6.468148   11.617037    ( 0.0000,  0.0000,  0.0000)
  16 Li     3.234074    6.468148   11.617037    ( 0.0000,  0.0000,  0.0000)
  17 Li     6.468148    6.468148   11.617037    ( 0.0000,  0.0000,  0.0000)
  18 Li     1.402421    1.614193   13.497436    ( 0.0000,  0.0000,  0.0000)
  19 Li     4.800809    1.705526   13.558800    ( 0.0000,  0.0000,  0.0000)
  20 Li     8.114679    1.290004   13.791189    ( 0.0000,  0.0000,  0.0000)
  21 Li     1.553699    4.906515   13.506450    ( 0.0000,  0.0000,  0.0000)
  22 Li     4.864593    4.920146   13.471832    ( 0.0000,  0.0000,  0.0000)
  23 Li     8.017041    4.814997   13.532353    ( 0.0000,  0.0000,  0.0000)
  24 Li     1.544442    8.256171   13.608997    ( 0.0000,  0.0000,  0.0000)
  25 Li     5.299923    8.322632   13.820028    ( 0.0000,  0.0000,  0.0000)
  26 Li     8.048782    8.052652   13.525373    ( 0.0000,  0.0000,  0.0000)
  27 Li    -1.102725   -0.316771   15.565925    ( 0.0000,  0.0000,  0.0000)
  28 Li     1.611927    0.331366   15.787207    ( 0.0000,  0.0000,  0.0000)
  29 Li     5.880489    0.186539   15.913743    ( 0.0000,  0.0000,  0.0000)
  30 Li    -0.036027    2.803159   15.405394    ( 0.0000,  0.0000,  0.0000)
  31 Li     3.285030    3.276522   15.409458    ( 0.0000,  0.0000,  0.0000)
  32 Li     6.276757    3.662101   15.580123    ( 0.0000,  0.0000,  0.0000)
  33 Li     0.036684    6.257328   15.463880    ( 0.0000,  0.0000,  0.0000)
  34 Li     3.218602    6.412565   15.401902    ( 0.0000,  0.0000,  0.0000)
  35 Li     6.683317    6.969617   15.655668    ( 0.0000,  0.0000,  0.0000)
  36 N      0.140173    0.991785   14.791362    ( 0.0000,  0.0000,  0.0000)
  37 N      6.889342    8.692811   14.848576    ( 0.0000,  0.0000,  0.0000)

Unit cell:
           periodic     x           y           z      points  spacing
  1. axis:    yes    9.702222    0.000000    0.000000    60     0.1617
  2. axis:    yes    0.000000    9.702222    0.000000    60     0.1617
  3. axis:    no     0.000000    0.000000   24.851111   156     0.1593

  Lengths:   9.702222   9.702222  24.851111
  Angles:   90.000000  90.000000  90.000000

Effective grid spacing dv^(1/3) = 0.1609

     iter     time        total  log10-change:
                         energy  eigst   dens
iter:   1 18:27:04  -231.770187  +0.93
iter:   2 18:27:28  -232.151023  +0.35  -1.70
iter:   3 18:27:52  -232.267313  -0.08  -1.93
iter:   4 18:28:17  -232.315390  -0.45  -2.15
Writing to output.gpw (mode='')

iter:   5 18:28:42  -232.337660  -0.78  -2.39
iter:   6 18:29:08  -232.348652  -1.10  -2.58
iter:   7 18:29:34  -232.354749c -1.35  -2.86
iter:   8 18:29:59  -232.358373c -1.54  -2.96
iter:   9 18:30:24  -232.360143c -1.83  -2.79
Writing to output.gpw (mode='')

iter:  10 18:30:49  -232.361488c -2.02  -3.04
iter:  11 18:31:13  -232.362465c -2.16  -3.21
iter:  12 18:31:38  -232.363122c -2.28  -3.42
iter:  13 18:32:02  -232.363554c -2.50  -3.52
iter:  14 18:32:27  -232.363868c -2.63  -3.47
Writing to output.gpw (mode='')

iter:  15 18:32:51  -232.364151c -2.65  -3.46
iter:  16 18:33:17  -232.364335c -2.84  -3.34
iter:  17 18:33:40  -232.364468c -3.01  -3.26
iter:  18 18:34:04  -232.364571c -3.12  -3.20
iter:  19 18:34:28  -232.364661c -3.17  -3.16
Writing to output.gpw (mode='')

iter:  20 18:34:52  -232.364755c -3.26  -3.11
iter:  21 18:35:16  -232.364788c -3.40  -3.04
iter:  22 18:35:40  -232.364808c -3.61  -3.04
iter:  23 18:36:04  -232.364799c -3.70  -3.06
iter:  24 18:36:28  -232.364761c -3.68  -3.10
Writing to output.gpw (mode='')

iter:  25 18:36:51  -232.364753c -3.82  -3.19
iter:  26 18:37:16  -232.364772c -3.73  -3.23
iter:  27 18:37:41  -232.364785c -4.22  -3.34
iter:  28 18:38:05  -232.364781c -4.22  -3.35
iter:  29 18:38:31  -232.364790c -4.12  -3.46
Writing to output.gpw (mode='')

iter:  30 18:38:56  -232.364793c -4.48  -3.54
iter:  31 18:39:21  -232.364801c -4.40  -3.56
iter:  32 18:39:45  -232.364800c -4.72  -3.70
iter:  33 18:40:14  -232.364803c -4.98  -3.82
iter:  34 18:40:42  -232.364809c -4.90  -3.86
Writing to output.gpw (mode='')

iter:  35 18:41:10  -232.364811c -4.95  -4.16c
iter:  36 18:41:33  -232.364811c -5.16  -4.38c
iter:  37 18:42:01  -232.364812c -5.33  -4.37c
iter:  38 18:42:31  -232.364811c -5.33  -4.39c
iter:  39 18:43:01  -232.364811c -5.43  -4.51c
Writing to output.gpw (mode='')

iter:  40 18:43:29  -232.364812c -5.68  -4.58c
iter:  41 18:43:54  -232.364812c -5.66  -4.56c
iter:  42 18:44:20  -232.364812c -5.86  -4.50c
iter:  43 18:44:45  -232.364812c -6.00  -4.54c
iter:  44 18:45:10  -232.364812c -6.01  -4.58c
Writing to output.gpw (mode='')

iter:  45 18:45:35  -232.364812c -6.13  -4.49c
iter:  46 18:45:59  -232.364812c -6.14  -4.70c
iter:  47 18:46:24  -232.364812c -6.23  -4.73c
iter:  48 18:46:47  -232.364812c -6.22  -4.73c
iter:  49 18:47:11  -232.364812c -6.29  -4.70c
Writing to output.gpw (mode='')

iter:  50 18:47:35  -232.364813c -6.51  -4.59c
iter:  51 18:47:59  -232.364813c -6.61  -4.91c
iter:  52 18:48:23  -232.364813c -6.48  -4.99c
iter:  53 18:48:46  -232.364813c -6.76  -5.08c
iter:  54 18:49:12  -232.364813c -6.71  -5.11c
Writing to output.gpw (mode='')

iter:  55 18:49:37  -232.364813c -6.71  -5.19c
iter:  56 18:50:04  -232.364813c -6.88  -5.28c
iter:  57 18:50:27  -232.364813c -6.90  -5.36c
iter:  58 18:50:50  -232.364813c -6.93  -5.50c
iter:  59 18:51:18  -232.364813c -7.10  -5.64c
Writing to output.gpw (mode='')

iter:  60 18:51:46  -232.364813c -7.05  -5.70c
iter:  61 18:52:10  -232.364813c -7.02  -5.69c
iter:  62 18:52:39  -232.364813c -7.30  -5.76c
iter:  63 18:53:05  -232.364813c -7.39  -5.74c
iter:  64 18:53:31  -232.364813c -7.48c -5.70c

Converged after 64 iterations.

Dipole moment: (-14.036973, -3.574296, 0.172541) |e|*Ang

Energy contributions relative to reference atoms: (reference = -10263.804537)

Kinetic:        +89.049755
Potential:      -76.616984
External:        +0.000000
XC:            -245.043570
Entropy (-ST):   -0.161287
Local:           +0.326630
--------------------------
Free energy:   -232.445456
Extrapolated:  -232.364813

Dipole-layer corrected work functions: 3.413412, 3.081729 eV

Showing only first 2 kpts
 Kpt  Band  Eigenvalues  Occupancy
  0    21     -3.35245    1.78135
  0    22     -3.26316    1.15460
  0    23     -3.24762    1.00046
  0    24     -3.09698    0.09379

  1    21     -3.45237    1.96727
  1    22     -3.29368    1.43099
  1    23     -3.17552    0.38278
  1    24     -3.08754    0.07829


Fermi level: -3.24757

No gap
Writing to output.gpw (mode='')


Forces in eV/Ang:
  0 Li    0.02716   -0.00084   -0.28482
  1 Li    0.00389    0.01684   -0.28569
  2 Li   -0.01430    0.00757   -0.29769
  3 Li    0.00671   -0.00422   -0.30241
  4 Li   -0.00421   -0.02146   -0.29395
  5 Li    0.00711    0.00995   -0.29913
  6 Li   -0.01766   -0.02664   -0.28946
  7 Li   -0.00289    0.00058   -0.30075
  8 Li    0.01248   -0.01328   -0.26670
  9 Li   -0.01857    0.00680    0.29939
 10 Li    0.07369   -0.02087    0.30966
 11 Li    0.00541    0.05254    0.27877
 12 Li   -0.10341    0.00903    0.27021
 13 Li   -0.06053    0.00270    0.33217
 14 Li    0.03391   -0.06931    0.32350
 15 Li   -0.01462    0.03213    0.30218
 16 Li    0.01631    0.14611    0.42248
 17 Li    0.00798    0.01192    0.20458
 18 Li    0.01485    0.00457    0.03466
 19 Li    0.03633   -0.01247    0.00409
 20 Li    0.06497   -0.10045    0.14691
 21 Li    0.05879    0.00684   -0.04126
 22 Li   -0.01689   -0.03039    0.00720
 23 Li    0.05181   -0.00458   -0.00919
 24 Li   -0.08063    0.03043    0.03108
 25 Li   -0.11639   -0.05574   -0.01513
 26 Li    0.07263   -0.13510   -0.17666
 27 Li   -0.00030    0.15004   -0.04188
 28 Li    0.05775    0.03361   -0.04097
 29 Li   -0.10680    0.04331   -0.12808
 30 Li   -0.02794   -0.10448   -0.03687
 31 Li   -0.06624   -0.00368    0.01561
 32 Li    0.04399   -0.00666    0.02207
 33 Li    0.04759   -0.10880    0.01905
 34 Li    0.01503    0.06142    0.00814
 35 Li   -0.03031    0.07219   -0.18753
 36 N     0.08978   -0.16158   -0.02741
 37 N    -0.04498    0.15878    0.34873

System changes: positions 

Initializing position-dependent things.

Density initialized from wave functions
       .-----------------------.  
      /|                       |  
     / |                       |  
    /  |                       |  
   /   |                       |  
  /    |                       |  
 *     |                       |  
 |     |                       |  
 |     |                       |  
 |     |                       |  
 |     |                       |  
 |     |                       |  
 |     |                    Li |  
 |     |              Li       |  
 |   Li|     Li                |  
 |     |  Li       Li     Li   |  
 |     |   Li              Li  |  
 |   Li|Li      Li      Li     |  
 |N    |                       |  
 |   Li|     LLi     LLi       |  
 |     |  Li      Li      Li   |  
 | Li  |   Li      Li          |  
 |     |Li      Li      Li     |  
 Li    | Li      Li            |  
 |    Li      Li      Li       |  
 |     |                       |  
 |     |                       |  
 |     |                       |  
 |     |                       |  
 |     |                       |  
 |     |                       |  
 |     .-----------------------.  
 |    /                       /   
 |   /                       /    
 |  /                       /     
 | /                       /      
 |/                       /       
 *-----------------------*        

Positions:
   0 Li     1.617037    1.617037   10.000000    ( 0.0000,  0.0000,  0.0000)
   1 Li     4.851111    1.617037   10.000000    ( 0.0000,  0.0000,  0.0000)
   2 Li     8.085185    1.617037   10.000000    ( 0.0000,  0.0000,  0.0000)
   3 Li     1.617037    4.851111   10.000000    ( 0.0000,  0.0000,  0.0000)
   4 Li     4.851111    4.851111   10.000000    ( 0.0000,  0.0000,  0.0000)
   5 Li     8.085185    4.851111   10.000000    ( 0.0000,  0.0000,  0.0000)
   6 Li     1.617037    8.085185   10.000000    ( 0.0000,  0.0000,  0.0000)
   7 Li     4.851111    8.085185   10.000000    ( 0.0000,  0.0000,  0.0000)
   8 Li     8.085185    8.085185   10.000000    ( 0.0000,  0.0000,  0.0000)
   9 Li     0.000000    0.000000   11.617037    ( 0.0000,  0.0000,  0.0000)
  10 Li     3.234074    0.000000   11.617037    ( 0.0000,  0.0000,  0.0000)
  11 Li     6.468148    0.000000   11.617037    ( 0.0000,  0.0000,  0.0000)
  12 Li     0.000000    3.234074   11.617037    ( 0.0000,  0.0000,  0.0000)
  13 Li     3.234074    3.234074   11.617037    ( 0.0000,  0.0000,  0.0000)
  14 Li     6.468148    3.234074   11.617037    ( 0.0000,  0.0000,  0.0000)
  15 Li     0.000000    6.468148   11.617037    ( 0.0000,  0.0000,  0.0000)
  16 Li     3.234074    6.468148   11.617037    ( 0.0000,  0.0000,  0.0000)
  17 Li     6.468148    6.468148   11.617037    ( 0.0000,  0.0000,  0.0000)
  18 Li     1.400026    1.617868   13.491230    ( 0.0000,  0.0000,  0.0000)
  19 Li     4.800925    1.705226   13.556897    ( 0.0000,  0.0000,  0.0000)
  20 Li     8.094601    1.255728   13.795883    ( 0.0000,  0.0000,  0.0000)
  21 Li     1.561277    4.904485   13.506358    ( 0.0000,  0.0000,  0.0000)
  22 Li     4.870985    4.924341   13.464373    ( 0.0000,  0.0000,  0.0000)
  23 Li     8.022331    4.814988   13.529556    ( 0.0000,  0.0000,  0.0000)
  24 Li     1.534035    8.259435   13.614076    ( 0.0000,  0.0000,  0.0000)
  25 Li     5.302880    8.326058   13.813584    ( 0.0000,  0.0000,  0.0000)
  26 Li     8.038856    8.056638   13.528169    ( 0.0000,  0.0000,  0.0000)
  27 Li    -1.130228   -0.314973   15.564403    ( 0.0000,  0.0000,  0.0000)
  28 Li     1.598381    0.330313   15.800511    ( 0.0000,  0.0000,  0.0000)
  29 Li     5.870930    0.193731   15.906815    ( 0.0000,  0.0000,  0.0000)
  30 Li    -0.041301    2.784568   15.375572    ( 0.0000,  0.0000,  0.0000)
  31 Li     3.295607    3.279916   15.414554    ( 0.0000,  0.0000,  0.0000)
  32 Li     6.288995    3.675526   15.581021    ( 0.0000,  0.0000,  0.0000)
  33 Li     0.054081    6.238109   15.465770    ( 0.0000,  0.0000,  0.0000)
  34 Li     3.224794    6.419822   15.393951    ( 0.0000,  0.0000,  0.0000)
  35 Li     6.684522    6.987503   15.649805    ( 0.0000,  0.0000,  0.0000)
  36 N      0.134848    0.972620   14.786457    ( 0.0000,  0.0000,  0.0000)
  37 N      6.867000    8.713554   14.848276    ( 0.0000,  0.0000,  0.0000)

Unit cell:
           periodic     x           y           z      points  spacing
  1. axis:    yes    9.702222    0.000000    0.000000    60     0.1617
  2. axis:    yes    0.000000    9.702222    0.000000    60     0.1617
  3. axis:    no     0.000000    0.000000   24.851111   156     0.1593

  Lengths:   9.702222   9.702222  24.851111
  Angles:   90.000000  90.000000  90.000000

Effective grid spacing dv^(1/3) = 0.1609

     iter     time        total  log10-change:
                         energy  eigst   dens
iter:   1 18:54:07  -232.405351  -0.76
iter:   2 18:54:31  -232.383745  -1.47  -1.72
iter:   3 18:54:57  -232.383056c -2.00  -2.12
iter:   4 18:55:25  -232.379894c -1.68  -2.21
Writing to output.gpw (mode='')

iter:   5 18:55:52  -232.379633c -2.68  -2.44
iter:   6 18:56:16  -232.379977c -2.57  -2.57
iter:   7 18:56:41  -232.379651c -2.29  -2.53
iter:   8 18:57:06  -232.379511c -3.09  -2.79
iter:   9 18:57:31  -232.379409c -3.25  -2.91
Writing to output.gpw (mode='')

iter:  10 18:57:56  -232.379498c -3.46  -3.13
iter:  11 18:58:21  -232.379536c -3.66  -3.16
iter:  12 18:58:48  -232.379445c -3.58  -3.14
iter:  13 18:59:17  -232.379469c -4.14  -3.35
iter:  14 18:59:44  -232.379494c -4.16  -3.46
Writing to output.gpw (mode='')

iter:  15 19:00:14  -232.379491c -4.29  -3.59
iter:  16 19:00:42  -232.379488c -4.70  -3.74
iter:  17 19:01:07  -232.379496c -4.78  -3.85
iter:  18 19:01:32  -232.379494c -4.82  -3.90
iter:  19 19:01:58  -232.379496c -4.93  -4.01c
Writing to output.gpw (mode='')

iter:  20 19:02:24  -232.379497c -5.22  -4.02c
iter:  21 19:02:49  -232.379497c -5.27  -4.05c
iter:  22 19:03:14  -232.379497c -5.46  -4.20c
iter:  23 19:03:39  -232.379496c -5.58  -4.29c
iter:  24 19:04:04  -232.379497c -5.92  -4.35c
Writing to output.gpw (mode='')

iter:  25 19:04:29  -232.379499c -5.74  -4.36c
iter:  26 19:04:55  -232.379499c -5.91  -4.46c
iter:  27 19:05:23  -232.379500c -6.17  -4.56c
iter:  28 19:05:48  -232.379500c -6.28  -4.69c
iter:  29 19:06:15  -232.379500c -6.51  -4.77c
Writing to output.gpw (mode='')

iter:  30 19:06:42  -232.379500c -6.55  -4.85c
iter:  31 19:07:06  -232.379500c -6.47  -4.99c
iter:  32 19:07:32  -232.379500c -6.68  -5.18c
iter:  33 19:07:57  -232.379500c -6.81  -5.19c
iter:  34 19:08:23  -232.379501c -6.94  -5.22c
Writing to output.gpw (mode='')

iter:  35 19:08:48  -232.379501c -7.07  -5.38c
iter:  36 19:09:15  -232.379501c -7.23  -5.43c
iter:  37 19:09:42  -232.379501c -7.26  -5.54c
iter:  38 19:10:08  -232.379501c -7.20  -5.62c
iter:  39 19:10:34  -232.379501c -7.38  -5.62c
Writing to output.gpw (mode='')

iter:  40 19:10:59  -232.379501c -7.60c -5.60c

Converged after 40 iterations.

Dipole moment: (-14.239668, -3.658546, 0.172763) |e|*Ang

Energy contributions relative to reference atoms: (reference = -10263.804537)

Kinetic:        +89.491497
Potential:      -76.920439
External:        +0.000000
XC:            -245.196747
Entropy (-ST):   -0.161098
Local:           +0.326737
--------------------------
Free energy:   -232.460049
Extrapolated:  -232.379501

Dipole-layer corrected work functions: 3.413779, 3.081668 eV

Showing only first 2 kpts
 Kpt  Band  Eigenvalues  Occupancy
  0    21     -3.34992    1.77068
  0    22     -3.26477    1.16884
  0    23     -3.24861    1.00885
  0    24     -3.09468    0.08951

  1    21     -3.45635    1.96964
  1    22     -3.29399    1.43224
  1    23     -3.17520    0.37984
  1    24     -3.08553    0.07510


Fermi level: -3.24772

No gap

Forces in eV/Ang:
  0 Li    0.02763   -0.00096   -0.28574
  1 Li    0.00376    0.01639   -0.28439
  2 Li   -0.01431    0.00690   -0.29823
  3 Li    0.00635   -0.00458   -0.30177
  4 Li   -0.00432   -0.02137   -0.29347
  5 Li    0.00700    0.00995   -0.30047
  6 Li   -0.01758   -0.02634   -0.29042
  7 Li   -0.00263    0.00056   -0.30047
  8 Li    0.01226   -0.01257   -0.26415
  9 Li   -0.02154    0.00809    0.30362
 10 Li    0.07141   -0.02351    0.30861
 11 Li   -0.00145    0.05093    0.26535
 12 Li   -0.10641    0.00836    0.27184
 13 Li   -0.05959    0.00235    0.33032
 14 Li    0.03576   -0.07130    0.32286
 15 Li   -0.01577    0.03312    0.30678
 16 Li    0.01424    0.15075    0.42358
 17 Li    0.01223    0.01256    0.19896
 18 Li    0.00121   -0.03661    0.07239
 19 Li    0.03801   -0.00905    0.00605
 20 Li    0.06873   -0.07080    0.13399
 21 Li    0.05957    0.00324   -0.04941
 22 Li   -0.01890   -0.03557    0.01773
 23 Li    0.05233    0.00082   -0.01011
 24 Li   -0.09047    0.04764    0.03967
 25 Li   -0.18097   -0.05998   -0.04274
 26 Li    0.06225   -0.13564   -0.15049
 27 Li    0.08315    0.14557    0.00922
 28 Li    0.06076    0.02599   -0.05560
 29 Li   -0.17803    0.10854   -0.06486
 30 Li   -0.03641   -0.06396   -0.00598
 31 Li   -0.07056   -0.00086    0.01203
 32 Li    0.03829   -0.00909    0.01895
 33 Li    0.03441   -0.10421    0.02419
 34 Li    0.02117    0.05934    0.00789
 35 Li   -0.03627    0.05151   -0.17356
 36 N     0.06663   -0.16664   -0.10368
 37 N     0.10274    0.07633    0.17348

System changes: positions 

Initializing position-dependent things.

Density initialized from wave functions
       .-----------------------.  
      /|                       |  
     / |                       |  
    /  |                       |  
   /   |                       |  
  /    |                       |  
 *     |                       |  
 |     |                       |  
 |     |                       |  
 |     |                       |  
 |     |                       |  
 |     |                       |  
 |     |                    Li |  
 |     |              Li       |  
 |   Li|     Li                |  
 |     |  Li       Li     Li   |  
 |     |   Li              Li  |  
 |   Li|Li      Li      Li     |  
 |N    |                       |  
 |   Li|     LLi     LLi       |  
 |     |  Li      Li      Li   |  
 | Li  |   Li      Li          |  
 |     |Li      Li      Li     |  
 Li    | Li      Li            |  
 |    Li      Li      Li       |  
 |     |                       |  
 |     |                       |  
 |     |                       |  
 |     |                       |  
 |     |                       |  
 |     |                       |  
 |     .-----------------------.  
 |    /                       /   
 |   /                       /    
 |  /                       /     
 | /                       /      
 |/                       /       
 *-----------------------*        

Positions:
   0 Li     1.617037    1.617037   10.000000    ( 0.0000,  0.0000,  0.0000)
   1 Li     4.851111    1.617037   10.000000    ( 0.0000,  0.0000,  0.0000)
   2 Li     8.085185    1.617037   10.000000    ( 0.0000,  0.0000,  0.0000)
   3 Li     1.617037    4.851111   10.000000    ( 0.0000,  0.0000,  0.0000)
   4 Li     4.851111    4.851111   10.000000    ( 0.0000,  0.0000,  0.0000)
   5 Li     8.085185    4.851111   10.000000    ( 0.0000,  0.0000,  0.0000)
   6 Li     1.617037    8.085185   10.000000    ( 0.0000,  0.0000,  0.0000)
   7 Li     4.851111    8.085185   10.000000    ( 0.0000,  0.0000,  0.0000)
   8 Li     8.085185    8.085185   10.000000    ( 0.0000,  0.0000,  0.0000)
   9 Li     0.000000    0.000000   11.617037    ( 0.0000,  0.0000,  0.0000)
  10 Li     3.234074    0.000000   11.617037    ( 0.0000,  0.0000,  0.0000)
  11 Li     6.468148    0.000000   11.617037    ( 0.0000,  0.0000,  0.0000)
  12 Li     0.000000    3.234074   11.617037    ( 0.0000,  0.0000,  0.0000)
  13 Li     3.234074    3.234074   11.617037    ( 0.0000,  0.0000,  0.0000)
  14 Li     6.468148    3.234074   11.617037    ( 0.0000,  0.0000,  0.0000)
  15 Li     0.000000    6.468148   11.617037    ( 0.0000,  0.0000,  0.0000)
  16 Li     3.234074    6.468148   11.617037    ( 0.0000,  0.0000,  0.0000)
  17 Li     6.468148    6.468148   11.617037    ( 0.0000,  0.0000,  0.0000)
  18 Li     1.400266    1.617145   13.484800    ( 0.0000,  0.0000,  0.0000)
  19 Li     4.800681    1.705262   13.557669    ( 0.0000,  0.0000,  0.0000)
  20 Li     8.078279    1.220327   13.804849    ( 0.0000,  0.0000,  0.0000)
  21 Li     1.569760    4.898563   13.505015    ( 0.0000,  0.0000,  0.0000)
  22 Li     4.877350    4.926890   13.458483    ( 0.0000,  0.0000,  0.0000)
  23 Li     8.026801    4.817302   13.526284    ( 0.0000,  0.0000,  0.0000)
  24 Li     1.524747    8.264650   13.617469    ( 0.0000,  0.0000,  0.0000)
  25 Li     5.299777    8.327395   13.811101    ( 0.0000,  0.0000,  0.0000)
  26 Li     8.033642    8.057190   13.528156    ( 0.0000,  0.0000,  0.0000)
  27 Li    -1.145615   -0.308228   15.567508    ( 0.0000,  0.0000,  0.0000)
  28 Li     1.581860    0.330554   15.809566    ( 0.0000,  0.0000,  0.0000)
  29 Li     5.861761    0.202270   15.900803    ( 0.0000,  0.0000,  0.0000)
  30 Li    -0.045907    2.762885   15.349724    ( 0.0000,  0.0000,  0.0000)
  31 Li     3.308581    3.284294   15.422276    ( 0.0000,  0.0000,  0.0000)
  32 Li     6.298439    3.687711   15.584553    ( 0.0000,  0.0000,  0.0000)
  33 Li     0.067195    6.221225   15.469639    ( 0.0000,  0.0000,  0.0000)
  34 Li     3.232018    6.428616   15.387449    ( 0.0000,  0.0000,  0.0000)
  35 Li     6.688218    7.003537   15.643292    ( 0.0000,  0.0000,  0.0000)
  36 N      0.129833    0.953164   14.774409    ( 0.0000,  0.0000,  0.0000)
  37 N      6.852118    8.729759   14.844826    ( 0.0000,  0.0000,  0.0000)

Unit cell:
           periodic     x           y           z      points  spacing
  1. axis:    yes    9.702222    0.000000    0.000000    60     0.1617
  2. axis:    yes    0.000000    9.702222    0.000000    60     0.1617
  3. axis:    no     0.000000    0.000000   24.851111   156     0.1593

  Lengths:   9.702222   9.702222  24.851111
  Angles:   90.000000  90.000000  90.000000

Effective grid spacing dv^(1/3) = 0.1609

     iter     time        total  log10-change:
                         energy  eigst   dens
iter:   1 19:11:35  -232.418674  -0.85
iter:   2 19:12:00  -232.396648  -1.54  -1.72
iter:   3 19:12:25  -232.395618  -2.10  -2.12
iter:   4 19:12:50  -232.392611c -1.71  -2.22
Writing to output.gpw (mode='')

iter:   5 19:13:16  -232.392268c -2.81  -2.47
iter:   6 19:13:40  -232.392671c -2.63  -2.60
iter:   7 19:14:05  -232.392200c -2.36  -2.53
iter:   8 19:14:30  -232.392152c -3.09  -2.84
iter:   9 19:14:58  -232.392038c -3.40  -2.91
Writing to output.gpw (mode='')

iter:  10 19:15:29  -232.392078c -3.57  -3.15
iter:  11 19:15:51  -232.392090c -3.92  -3.22
iter:  12 19:16:19  -232.392057c -4.00  -3.25
iter:  13 19:16:42  -232.392066c -4.06  -3.45
iter:  14 19:17:06  -232.392067c -4.24  -3.59
Writing to output.gpw (mode='')

iter:  15 19:17:32  -232.392073c -4.62  -3.59
iter:  16 19:17:58  -232.392082c -4.72  -3.63
iter:  17 19:18:28  -232.392080c -4.95  -3.84
iter:  18 19:19:01  -232.392082c -5.07  -3.78
iter:  19 19:19:52  -232.392090c -4.99  -3.86
Writing to output.gpw (mode='')

iter:  20 19:20:29  -232.392089c -5.43  -4.06c
iter:  21 19:21:20  -232.392088c -5.34  -4.14c
iter:  22 19:21:56  -232.392091c -5.46  -4.24c
iter:  23 19:22:39  -232.392089c -5.58  -4.25c
iter:  24 19:23:41  -232.392088c -5.73  -4.44c
Writing to output.gpw (mode='')

iter:  25 19:24:15  -232.392089c -5.91  -4.47c
iter:  26 19:24:46  -232.392090c -6.08  -4.68c
iter:  27 19:25:31  -232.392089c -6.20  -4.72c
iter:  28 19:26:32  -232.392090c -6.27  -4.78c
iter:  29 19:28:21  -232.392090c -6.40  -4.89c
Writing to output.gpw (mode='')

iter:  30 19:29:00  -232.392090c -6.60  -4.91c
iter:  31 19:29:33  -232.392090c -6.69  -5.04c
iter:  32 19:30:02  -232.392090c -6.87  -5.24c
iter:  33 19:30:51  -232.392090c -6.84  -5.32c
iter:  34 19:31:25  -232.392090c -6.89  -5.36c
Writing to output.gpw (mode='')

iter:  35 19:31:58  -232.392090c -7.04  -5.39c
iter:  36 19:32:31  -232.392090c -7.15  -5.34c
iter:  37 19:33:06  -232.392090c -7.34  -5.26c
iter:  38 19:33:36  -232.392090c -7.53c -5.31c

Converged after 38 iterations.

Dipole moment: (-14.338602, -3.807521, 0.173192) |e|*Ang

Energy contributions relative to reference atoms: (reference = -10263.804537)

Kinetic:        +89.823025
Potential:      -77.146806
External:        +0.000000
XC:            -245.315162
Entropy (-ST):   -0.160969
Local:           +0.327337
--------------------------
Free energy:   -232.472575
Extrapolated:  -232.392090

Dipole-layer corrected work functions: 3.413510, 3.080576 eV

Showing only first 2 kpts
 Kpt  Band  Eigenvalues  Occupancy
  0    21     -3.34721    1.76229
  0    22     -3.26563    1.18374
  0    23     -3.24902    1.01972
  0    24     -3.09198    0.08611

  1    21     -3.45874    1.97142
  1    22     -3.29313    1.43081
  1    23     -3.17327    0.37225
  1    24     -3.08309    0.07259


Fermi level: -3.24704

No gap
Writing to output.gpw (mode='')


Forces in eV/Ang:
  0 Li    0.02829   -0.00102   -0.28660
  1 Li    0.00357    0.01591   -0.28331
  2 Li   -0.01453    0.00630   -0.30010
  3 Li    0.00598   -0.00502   -0.30125
  4 Li   -0.00456   -0.02133   -0.29277
  5 Li    0.00682    0.01013   -0.30096
  6 Li   -0.01765   -0.02563   -0.29075
  7 Li   -0.00274    0.00061   -0.30108
  8 Li    0.01248   -0.01213   -0.26220
  9 Li   -0.02502    0.01111    0.30884
 10 Li    0.07088   -0.02582    0.30625
 11 Li   -0.00848    0.04722    0.25970
 12 Li   -0.10903    0.00627    0.27396
 13 Li   -0.05675    0.00034    0.32777
 14 Li    0.03733   -0.07345    0.32293
 15 Li   -0.01413    0.03179    0.30892
 16 Li    0.01233    0.15455    0.42530
 17 Li    0.01476    0.01422    0.19480
 18 Li   -0.00223   -0.06079    0.09160
 19 Li    0.03916   -0.00624    0.00478
 20 Li    0.04768   -0.04394    0.10162
 21 Li    0.05825    0.00531   -0.05020
 22 Li   -0.02152   -0.03828    0.02676
 23 Li    0.05285    0.00132   -0.00771
 24 Li   -0.09996    0.05962    0.05012
 25 Li   -0.21018   -0.05907   -0.06472
 26 Li    0.05336   -0.12783   -0.12051
 27 Li    0.10277    0.09761    0.03618
 28 Li    0.08515    0.01466   -0.06282
 29 Li   -0.21679    0.14155   -0.02799
 30 Li   -0.04451   -0.01889    0.01388
 31 Li   -0.07776    0.00032    0.00868
 32 Li    0.03769   -0.01036    0.01475
 33 Li    0.02714   -0.10170    0.02522
 34 Li    0.02250    0.05533    0.00671
 35 Li   -0.04271    0.03014   -0.15815
 36 N     0.02991   -0.15769   -0.14617
 37 N     0.16700    0.10306    0.12978

System changes: positions 

Initializing position-dependent things.

Density initialized from wave functions
       .-----------------------.  
      /|                       |  
     / |                       |  
    /  |                       |  
   /   |                       |  
  /    |                       |  
 *     |                       |  
 |     |                       |  
 |     |                       |  
 |     |                       |  
 |     |                       |  
 |     |                       |  
 |     |                    Li |  
 |     |              Li       |  
 |   Li|     Li                |  
 |     |  Li       Li     Li   |  
 |     |   Li              Li  |  
 |   Li|Li      Li      Li     |  
 |N    |                       |  
 |   Li|     LLi     LLi       |  
 |     |  Li      Li      Li   |  
 | Li  |   Li      Li          |  
 |     |Li      Li      Li     |  
 Li    | Li      Li            |  
 |    Li      Li      Li       |  
 |     |                       |  
 |     |                       |  
 |     |                       |  
 |     |                       |  
 |     |                       |  
 |     |                       |  
 |     .-----------------------.  
 |    /                       /   
 |   /                       /    
 |  /                       /     
 | /                       /      
 |/                       /       
 *-----------------------*        

Positions:
   0 Li     1.617037    1.617037   10.000000    ( 0.0000,  0.0000,  0.0000)
   1 Li     4.851111    1.617037   10.000000    ( 0.0000,  0.0000,  0.0000)
   2 Li     8.085185    1.617037   10.000000    ( 0.0000,  0.0000,  0.0000)
   3 Li     1.617037    4.851111   10.000000    ( 0.0000,  0.0000,  0.0000)
   4 Li     4.851111    4.851111   10.000000    ( 0.0000,  0.0000,  0.0000)
   5 Li     8.085185    4.851111   10.000000    ( 0.0000,  0.0000,  0.0000)
   6 Li     1.617037    8.085185   10.000000    ( 0.0000,  0.0000,  0.0000)
   7 Li     4.851111    8.085185   10.000000    ( 0.0000,  0.0000,  0.0000)
   8 Li     8.085185    8.085185   10.000000    ( 0.0000,  0.0000,  0.0000)
   9 Li     0.000000    0.000000   11.617037    ( 0.0000,  0.0000,  0.0000)
  10 Li     3.234074    0.000000   11.617037    ( 0.0000,  0.0000,  0.0000)
  11 Li     6.468148    0.000000   11.617037    ( 0.0000,  0.0000,  0.0000)
  12 Li     0.000000    3.234074   11.617037    ( 0.0000,  0.0000,  0.0000)
  13 Li     3.234074    3.234074   11.617037    ( 0.0000,  0.0000,  0.0000)
  14 Li     6.468148    3.234074   11.617037    ( 0.0000,  0.0000,  0.0000)
  15 Li     0.000000    6.468148   11.617037    ( 0.0000,  0.0000,  0.0000)
  16 Li     3.234074    6.468148   11.617037    ( 0.0000,  0.0000,  0.0000)
  17 Li     6.468148    6.468148   11.617037    ( 0.0000,  0.0000,  0.0000)
  18 Li     1.398972    1.613379   13.481581    ( 0.0000,  0.0000,  0.0000)
  19 Li     4.799828    1.705921   13.558877    ( 0.0000,  0.0000,  0.0000)
  20 Li     8.059702    1.185872   13.813080    ( 0.0000,  0.0000,  0.0000)
  21 Li     1.577895    4.891755   13.503100    ( 0.0000,  0.0000,  0.0000)
  22 Li     4.884323    4.929455   13.453077    ( 0.0000,  0.0000,  0.0000)
  23 Li     8.030769    4.821105   13.522986    ( 0.0000,  0.0000,  0.0000)
  24 Li     1.515736    8.271251   13.621310    ( 0.0000,  0.0000,  0.0000)
  25 Li     5.294128    8.330208   13.807456    ( 0.0000,  0.0000,  0.0000)
  26 Li     8.030209    8.057516   13.527480    ( 0.0000,  0.0000,  0.0000)
  27 Li    -1.159418   -0.304453   15.571036    ( 0.0000,  0.0000,  0.0000)
  28 Li     1.563108    0.329395   15.819162    ( 0.0000,  0.0000,  0.0000)
  29 Li     5.852217    0.211762   15.897982    ( 0.0000,  0.0000,  0.0000)
  30 Li    -0.051211    2.742712   15.324133    ( 0.0000,  0.0000,  0.0000)
  31 Li     3.323315    3.289260   15.430382    ( 0.0000,  0.0000,  0.0000)
  32 Li     6.307860    3.700270   15.587476    ( 0.0000,  0.0000,  0.0000)
  33 Li     0.079947    6.205328   15.473258    ( 0.0000,  0.0000,  0.0000)
  34 Li     3.239825    6.436050   15.379906    ( 0.0000,  0.0000,  0.0000)
  35 Li     6.692046    7.019741   15.638729    ( 0.0000,  0.0000,  0.0000)
  36 N      0.120602    0.932918   14.759865    ( 0.0000,  0.0000,  0.0000)
  37 N      6.839548    8.746228   14.840421    ( 0.0000,  0.0000,  0.0000)

Unit cell:
           periodic     x           y           z      points  spacing
  1. axis:    yes    9.702222    0.000000    0.000000    60     0.1617
  2. axis:    yes    0.000000    9.702222    0.000000    60     0.1617
  3. axis:    no     0.000000    0.000000   24.851111   156     0.1593

  Lengths:   9.702222   9.702222  24.851111
  Angles:   90.000000  90.000000  90.000000

Effective grid spacing dv^(1/3) = 0.1609

     iter     time        total  log10-change:
                         energy  eigst   dens
iter:   1 19:34:15  -232.430593  -0.83
iter:   2 19:34:45  -232.407142  -1.52  -1.71
iter:   3 19:35:28  -232.405977  -2.08  -2.10
iter:   4 19:36:03  -232.402566c -1.72  -2.21
Writing to output.gpw (mode='')

iter:   5 19:36:28  -232.402412c -2.81  -2.48
iter:   6 19:38:12  -232.402908c -2.55  -2.59
iter:   7 19:38:47  -232.402263c -2.30  -2.49
iter:   8 19:39:24  -232.402264c -2.99  -2.83
iter:   9 19:39:58  -232.402164c -3.43  -2.87
Writing to output.gpw (mode='')

iter:  10 19:40:36  -232.402136c -3.47  -3.03
iter:  11 19:41:10  -232.402154c -3.87  -3.23
iter:  12 19:41:42  -232.402146c -4.09  -3.27
iter:  13 19:42:14  -232.402145c -3.90  -3.35
iter:  14 19:42:50  -232.402140c -4.35  -3.47
Writing to output.gpw (mode='')

iter:  15 19:43:26  -232.402144c -4.55  -3.53
iter:  16 19:43:59  -232.402164c -4.53  -3.58
iter:  17 19:44:32  -232.402169c -4.76  -3.74
iter:  18 19:45:07  -232.402160c -4.70  -3.86
iter:  19 19:45:50  -232.402161c -5.21  -3.94
Writing to output.gpw (mode='')

iter:  20 19:46:23  -232.402165c -5.25  -3.98
iter:  21 19:46:56  -232.402169c -5.30  -4.09c
iter:  22 19:47:32  -232.402165c -5.56  -4.23c
iter:  23 19:48:05  -232.402166c -5.75  -4.34c
iter:  24 19:49:46  -232.402167c -5.72  -4.41c
Writing to output.gpw (mode='')

iter:  25 19:50:50  -232.402167c -5.86  -4.47c
iter:  26 19:51:22  -232.402166c -5.99  -4.62c
iter:  27 19:52:07  -232.402167c -6.34  -4.69c
iter:  28 19:52:44  -232.402167c -6.45  -4.78c
iter:  29 19:53:19  -232.402167c -6.44  -4.88c
Writing to output.gpw (mode='')

iter:  30 19:53:52  -232.402167c -6.47  -4.89c
iter:  31 19:54:26  -232.402167c -6.65  -4.92c
iter:  32 19:55:03  -232.402167c -6.79  -5.03c
iter:  33 19:55:36  -232.402167c -6.94  -5.08c
iter:  34 19:56:08  -232.402167c -6.96  -5.27c
Writing to output.gpw (mode='')

iter:  35 19:56:42  -232.402167c -7.20  -5.42c
iter:  36 19:57:11  -232.402167c -7.37  -5.42c
iter:  37 19:57:41  -232.402167c -7.36  -5.42c
iter:  38 19:58:11  -232.402167c -7.31  -5.41c
iter:  39 19:58:38  -232.402167c -7.50c -5.37c

Converged after 39 iterations.

Dipole moment: (-14.309595, -3.943504, 0.173714) |e|*Ang

Energy contributions relative to reference atoms: (reference = -10263.804537)

Kinetic:        +90.031430
Potential:      -77.283395
External:        +0.000000
XC:            -245.397249
Entropy (-ST):   -0.160902
Local:           +0.327498
--------------------------
Free energy:   -232.482618
Extrapolated:  -232.402167

Dipole-layer corrected work functions: 3.412988, 3.079050 eV

Showing only first 2 kpts
 Kpt  Band  Eigenvalues  Occupancy
  0    21     -3.34441    1.75477
  0    22     -3.26613    1.19845
  0    23     -3.24915    1.03127
  0    24     -3.08923    0.08332

  1    21     -3.46021    1.97279
  1    22     -3.29159    1.42657
  1    23     -3.17072    0.36307
  1    24     -3.08052    0.07046


Fermi level: -3.24602

No gap
Writing to output.gpw (mode='')


Forces in eV/Ang:
  0 Li    0.02894   -0.00118   -0.28754
  1 Li    0.00350    0.01532   -0.28226
  2 Li   -0.01481    0.00570   -0.30266
  3 Li    0.00565   -0.00538   -0.30105
  4 Li   -0.00486   -0.02129   -0.29200
  5 Li    0.00659    0.01024   -0.30110
  6 Li   -0.01772   -0.02471   -0.29109
  7 Li   -0.00303    0.00068   -0.30166
  8 Li    0.01276   -0.01176   -0.26051
  9 Li   -0.02912    0.01514    0.31587
 10 Li    0.06992   -0.02748    0.30376
 11 Li   -0.01581    0.04319    0.25405
 12 Li   -0.11085    0.00344    0.27710
 13 Li   -0.05442   -0.00250    0.32607
 14 Li    0.03854   -0.07509    0.32305
 15 Li   -0.01169    0.03026    0.31030
 16 Li    0.01032    0.15811    0.42745
 17 Li    0.01705    0.01693    0.19067
 18 Li    0.00253   -0.07652    0.09560
 19 Li    0.04017   -0.00467    0.00329
 20 Li    0.02306   -0.02319    0.07408
 21 Li    0.05715    0.00745   -0.04962
 22 Li   -0.02462   -0.04073    0.03426
 23 Li    0.05412    0.00140   -0.00523
 24 Li   -0.10948    0.06854    0.05960
 25 Li   -0.22024   -0.05679   -0.07408
 26 Li    0.04268   -0.11852   -0.09181
 27 Li    0.11540    0.05745    0.05883
 28 Li    0.09704    0.01034   -0.07778
 29 Li   -0.24116    0.15898   -0.00810
 30 Li   -0.05562    0.01489    0.02904
 31 Li   -0.08693    0.00051    0.00611
 32 Li    0.03833   -0.01175    0.01175
 33 Li    0.02035   -0.09945    0.02592
 34 Li    0.02222    0.05289    0.00633
 35 Li   -0.05014    0.01555   -0.15057
 36 N     0.10040   -0.19761   -0.20648
 37 N     0.27088    0.07933    0.08943

System changes: positions 

Initializing position-dependent things.

Density initialized from wave functions
       .-----------------------.  
      /|                       |  
     / |                       |  
    /  |                       |  
   /   |                       |  
  /    |                       |  
 *     |                       |  
 |     |                       |  
 |     |                       |  
 |     |                       |  
 |     |                       |  
 |     |                       |  
 |     |                    Li |  
 |     |              Li       |  
 |   Li|     Li                |  
 |     |  Li       Li     Li   |  
 |     |   Li              Li  |  
 |   Li|Li      Li      Li     |  
 |N    |                       |  
 |   Li|     LLi     LLi       |  
 |     |  Li      Li      Li   |  
 | Li  |   Li      Li          |  
 |     |Li      Li      Li     |  
 Li    | Li      Li            |  
 |    Li      Li      Li       |  
 |     |                       |  
 |     |                       |  
 |     |                       |  
 |     |                       |  
 |     |                       |  
 |     |                       |  
 |     .-----------------------.  
 |    /                       /   
 |   /                       /    
 |  /                       /     
 | /                       /      
 |/                       /       
 *-----------------------*        

Positions:
   0 Li     1.617037    1.617037   10.000000    ( 0.0000,  0.0000,  0.0000)
   1 Li     4.851111    1.617037   10.000000    ( 0.0000,  0.0000,  0.0000)
   2 Li     8.085185    1.617037   10.000000    ( 0.0000,  0.0000,  0.0000)
   3 Li     1.617037    4.851111   10.000000    ( 0.0000,  0.0000,  0.0000)
   4 Li     4.851111    4.851111   10.000000    ( 0.0000,  0.0000,  0.0000)
   5 Li     8.085185    4.851111   10.000000    ( 0.0000,  0.0000,  0.0000)
   6 Li     1.617037    8.085185   10.000000    ( 0.0000,  0.0000,  0.0000)
   7 Li     4.851111    8.085185   10.000000    ( 0.0000,  0.0000,  0.0000)
   8 Li     8.085185    8.085185   10.000000    ( 0.0000,  0.0000,  0.0000)
   9 Li     0.000000    0.000000   11.617037    ( 0.0000,  0.0000,  0.0000)
  10 Li     3.234074    0.000000   11.617037    ( 0.0000,  0.0000,  0.0000)
  11 Li     6.468148    0.000000   11.617037    ( 0.0000,  0.0000,  0.0000)
  12 Li     0.000000    3.234074   11.617037    ( 0.0000,  0.0000,  0.0000)
  13 Li     3.234074    3.234074   11.617037    ( 0.0000,  0.0000,  0.0000)
  14 Li     6.468148    3.234074   11.617037    ( 0.0000,  0.0000,  0.0000)
  15 Li     0.000000    6.468148   11.617037    ( 0.0000,  0.0000,  0.0000)
  16 Li     3.234074    6.468148   11.617037    ( 0.0000,  0.0000,  0.0000)
  17 Li     6.468148    6.468148   11.617037    ( 0.0000,  0.0000,  0.0000)
  18 Li     1.400353    1.609408   13.475752    ( 0.0000,  0.0000,  0.0000)
  19 Li     4.799450    1.706439   13.560798    ( 0.0000,  0.0000,  0.0000)
  20 Li     8.044318    1.150657   13.824179    ( 0.0000,  0.0000,  0.0000)
  21 Li     1.586570    4.884482   13.499880    ( 0.0000,  0.0000,  0.0000)
  22 Li     4.890118    4.931280   13.448191    ( 0.0000,  0.0000,  0.0000)
  23 Li     8.034615    4.825267   13.519196    ( 0.0000,  0.0000,  0.0000)
  24 Li     1.506571    8.278595   13.624076    ( 0.0000,  0.0000,  0.0000)
  25 Li     5.288995    8.331113   13.806966    ( 0.0000,  0.0000,  0.0000)
  26 Li     8.028246    8.055201   13.524837    ( 0.0000,  0.0000,  0.0000)
  27 Li    -1.172856   -0.295531   15.573295    ( 0.0000,  0.0000,  0.0000)
  28 Li     1.544078    0.329142   15.826899    ( 0.0000,  0.0000,  0.0000)
  29 Li     5.840157    0.223201   15.893135    ( 0.0000,  0.0000,  0.0000)
  30 Li    -0.055878    2.719050   15.300993    ( 0.0000,  0.0000,  0.0000)
  31 Li     3.336473    3.294468   15.438162    ( 0.0000,  0.0000,  0.0000)
  32 Li     6.315003    3.712381   15.591812    ( 0.0000,  0.0000,  0.0000)
  33 Li     0.090008    6.189625   15.477863    ( 0.0000,  0.0000,  0.0000)
  34 Li     3.247330    6.444908   15.374341    ( 0.0000,  0.0000,  0.0000)
  35 Li     6.697046    7.036278   15.630981    ( 0.0000,  0.0000,  0.0000)
  36 N      0.114160    0.911686   14.738755    ( 0.0000,  0.0000,  0.0000)
  37 N      6.832738    8.763030   14.836097    ( 0.0000,  0.0000,  0.0000)

Unit cell:
           periodic     x           y           z      points  spacing
  1. axis:    yes    9.702222    0.000000    0.000000    60     0.1617
  2. axis:    yes    0.000000    9.702222    0.000000    60     0.1617
  3. axis:    no     0.000000    0.000000   24.851111   156     0.1593

  Lengths:   9.702222   9.702222  24.851111
  Angles:   90.000000  90.000000  90.000000

Effective grid spacing dv^(1/3) = 0.1609

     iter     time        total  log10-change:
                         energy  eigst   dens
iter:   1 19:59:37  -232.453572  -0.79
iter:   2 20:00:12  -232.421353  -1.46  -1.64
iter:   3 20:00:48  -232.419682  -2.05  -2.06
iter:   4 20:01:23  -232.415836c -1.59  -2.17
Writing to output.gpw (mode='')

iter:   5 20:02:00  -232.415265c -2.77  -2.42
iter:   6 20:02:24  -232.415935c -2.44  -2.57
iter:   7 20:02:52  -232.415039c -2.29  -2.46
iter:   8 20:03:21  -232.415020c -3.00  -2.80
iter:   9 20:03:46  -232.414896c -3.31  -2.86
Writing to output.gpw (mode='')

iter:  10 20:04:24  -232.414951c -3.43  -3.13
iter:  11 20:04:52  -232.414956c -3.81  -3.18
iter:  12 20:05:22  -232.414922c -4.00  -3.23
iter:  13 20:05:47  -232.414919c -4.03  -3.36
iter:  14 20:06:15  -232.414920c -4.26  -3.48
Writing to output.gpw (mode='')

iter:  15 20:06:45  -232.414934c -4.46  -3.54
iter:  16 20:07:41  -232.414934c -4.61  -3.62
iter:  17 20:08:10  -232.414940c -4.72  -3.68
iter:  18 20:09:05  -232.414948c -4.86  -3.80
iter:  19 20:09:35  -232.414944c -5.17  -3.88
Writing to output.gpw (mode='')

iter:  20 20:10:06  -232.414949c -5.14  -4.06c
iter:  21 20:10:34  -232.414952c -5.33  -4.18c
iter:  22 20:11:02  -232.414950c -5.44  -4.22c
iter:  23 20:11:36  -232.414950c -5.77  -4.34c
iter:  24 20:12:09  -232.414949c -5.89  -4.44c
Writing to output.gpw (mode='')

iter:  25 20:12:41  -232.414949c -5.97  -4.49c
iter:  26 20:13:25  -232.414949c -6.18  -4.37c
iter:  27 20:14:31  -232.414950c -6.19  -4.61c
iter:  28 20:15:20  -232.414950c -6.37  -4.80c
iter:  29 20:16:18  -232.414950c -6.55  -4.76c
Writing to output.gpw (mode='')

iter:  30 20:16:53  -232.414950c -6.43  -4.75c
iter:  31 20:17:28  -232.414950c -6.63  -4.66c
iter:  32 20:18:05  -232.414950c -6.91  -4.67c
iter:  33 20:18:38  -232.414950c -6.94  -4.67c
iter:  34 20:19:14  -232.414950c -6.92  -4.62c
Writing to output.gpw (mode='')

iter:  35 20:19:40  -232.414950c -7.17  -4.70c
iter:  36 20:20:10  -232.414950c -7.16  -4.67c
iter:  37 20:20:40  -232.414950c -7.43c -4.71c

Converged after 37 iterations.

Dipole moment: (-14.273828, -4.133892, 0.174015) |e|*Ang

Energy contributions relative to reference atoms: (reference = -10263.804537)

Kinetic:        +90.251177
Potential:      -77.426157
External:        +0.000000
XC:            -245.487054
Entropy (-ST):   -0.160855
Local:           +0.327511
--------------------------
Free energy:   -232.495377
Extrapolated:  -232.414950

Dipole-layer corrected work functions: 3.412072, 3.077556 eV

Showing only first 2 kpts
 Kpt  Band  Eigenvalues  Occupancy
  0    21     -3.34182    1.74873
  0    22     -3.26652    1.21370
  0    23     -3.24892    1.04107
  0    24     -3.08623    0.08049

  1    21     -3.46197    1.97434
  1    22     -3.28968    1.42081
  1    23     -3.16758    0.35172
  1    24     -3.07739    0.06789


Fermi level: -3.24481

No gap
Writing to output.gpw (mode='')


Forces in eV/Ang:
  0 Li    0.02973   -0.00122   -0.28875
  1 Li    0.00324    0.01470   -0.28116
  2 Li   -0.01510    0.00523   -0.30599
  3 Li    0.00533   -0.00603   -0.30058
  4 Li   -0.00532   -0.02121   -0.29137
  5 Li    0.00646    0.01034   -0.30092
  6 Li   -0.01787   -0.02367   -0.29111
  7 Li   -0.00325    0.00074   -0.30256
  8 Li    0.01302   -0.01159   -0.25901
  9 Li   -0.03362    0.02095    0.32584
 10 Li    0.07086   -0.02972    0.30069
 11 Li   -0.02303    0.03874    0.25173
 12 Li   -0.11256    0.00041    0.27941
 13 Li   -0.05063   -0.00562    0.32296
 14 Li    0.03950   -0.07689    0.32323
 15 Li   -0.00849    0.02764    0.31006
 16 Li    0.00872    0.16186    0.42932
 17 Li    0.01836    0.01880    0.18662
 18 Li    0.01126   -0.08808    0.09532
 19 Li    0.04034   -0.00161   -0.00042
 20 Li   -0.01937    0.00133    0.02431
 21 Li    0.05425    0.01131   -0.04471
 22 Li   -0.02674   -0.04134    0.04177
 23 Li    0.05433   -0.00096   -0.00061
 24 Li   -0.12002    0.07901    0.07183
 25 Li   -0.21916   -0.04941   -0.08502
 26 Li    0.03509   -0.10245   -0.05948
 27 Li    0.13737    0.00249    0.08927
 28 Li    0.11376    0.00322   -0.09514
 29 Li   -0.24748    0.15910    0.00280
 30 Li   -0.06476    0.05318    0.03613
 31 Li   -0.09539    0.00002    0.00402
 32 Li    0.04108   -0.01173    0.00770
 33 Li    0.01608   -0.09721    0.02437
 34 Li    0.02008    0.04814    0.00463
 35 Li   -0.05579   -0.00330   -0.13380
 36 N     0.10096   -0.16997   -0.13032
 37 N     0.25879    0.13538   -0.00100

System changes: positions 

Initializing position-dependent things.

Density initialized from wave functions
       .-----------------------.  
      /|                       |  
     / |                       |  
    /  |                       |  
   /   |                       |  
  /    |                       |  
 *     |                       |  
 |     |                       |  
 |     |                       |  
 |     |                       |  
 |     |                       |  
 |     |                       |  
 |     |                    Li |  
 |     |              Li       |  
 |   Li|     Li                |  
 |     |  Li       Li     Li   |  
 |     |   Li              Li  |  
 |   Li|Li      Li      Li     |  
 |N    |                       |  
 |   Li|     LLi     LLi       |  
 |     |  Li      Li      Li   |  
 | Li  |   Li      Li          |  
 |     |Li      Li      Li     |  
 Li    | Li      Li            |  
 |    Li      Li      Li       |  
 |     |                       |  
 |     |                       |  
 |     |                       |  
 |     |                       |  
 |     |                       |  
 |     |                       |  
 |     .-----------------------.  
 |    /                       /   
 |   /                       /    
 |  /                       /     
 | /                       /      
 |/                       /       
 *-----------------------*        

Positions:
   0 Li     1.617037    1.617037   10.000000    ( 0.0000,  0.0000,  0.0000)
   1 Li     4.851111    1.617037   10.000000    ( 0.0000,  0.0000,  0.0000)
   2 Li     8.085185    1.617037   10.000000    ( 0.0000,  0.0000,  0.0000)
   3 Li     1.617037    4.851111   10.000000    ( 0.0000,  0.0000,  0.0000)
   4 Li     4.851111    4.851111   10.000000    ( 0.0000,  0.0000,  0.0000)
   5 Li     8.085185    4.851111   10.000000    ( 0.0000,  0.0000,  0.0000)
   6 Li     1.617037    8.085185   10.000000    ( 0.0000,  0.0000,  0.0000)
   7 Li     4.851111    8.085185   10.000000    ( 0.0000,  0.0000,  0.0000)
   8 Li     8.085185    8.085185   10.000000    ( 0.0000,  0.0000,  0.0000)
   9 Li     0.000000    0.000000   11.617037    ( 0.0000,  0.0000,  0.0000)
  10 Li     3.234074    0.000000   11.617037    ( 0.0000,  0.0000,  0.0000)
  11 Li     6.468148    0.000000   11.617037    ( 0.0000,  0.0000,  0.0000)
  12 Li     0.000000    3.234074   11.617037    ( 0.0000,  0.0000,  0.0000)
  13 Li     3.234074    3.234074   11.617037    ( 0.0000,  0.0000,  0.0000)
  14 Li     6.468148    3.234074   11.617037    ( 0.0000,  0.0000,  0.0000)
  15 Li     0.000000    6.468148   11.617037    ( 0.0000,  0.0000,  0.0000)
  16 Li     3.234074    6.468148   11.617037    ( 0.0000,  0.0000,  0.0000)
  17 Li     6.468148    6.468148   11.617037    ( 0.0000,  0.0000,  0.0000)
  18 Li     1.400479    1.604505   13.471746    ( 0.0000,  0.0000,  0.0000)
  19 Li     4.798832    1.707186   13.562654    ( 0.0000,  0.0000,  0.0000)
  20 Li     8.027083    1.115748   13.833364    ( 0.0000,  0.0000,  0.0000)
  21 Li     1.595238    4.876603   13.496903    ( 0.0000,  0.0000,  0.0000)
  22 Li     4.896293    4.933051   13.443606    ( 0.0000,  0.0000,  0.0000)
  23 Li     8.038550    4.829420   13.515549    ( 0.0000,  0.0000,  0.0000)
  24 Li     1.497223    8.286337   13.627335    ( 0.0000,  0.0000,  0.0000)
  25 Li     5.280518    8.332199   13.804960    ( 0.0000,  0.0000,  0.0000)
  26 Li     8.027927    8.053482   13.521946    ( 0.0000,  0.0000,  0.0000)
  27 Li    -1.182732   -0.289180   15.578167    ( 0.0000,  0.0000,  0.0000)
  28 Li     1.526200    0.328294   15.833806    ( 0.0000,  0.0000,  0.0000)
  29 Li     5.828300    0.235023   15.891138    ( 0.0000,  0.0000,  0.0000)
  30 Li    -0.061385    2.699108   15.279534    ( 0.0000,  0.0000,  0.0000)
  31 Li     3.350640    3.299749   15.446359    ( 0.0000,  0.0000,  0.0000)
  32 Li     6.322702    3.724361   15.595800    ( 0.0000,  0.0000,  0.0000)
  33 Li     0.100543    6.174034   15.482423    ( 0.0000,  0.0000,  0.0000)
  34 Li     3.255483    6.453632   15.368088    ( 0.0000,  0.0000,  0.0000)
  35 Li     6.701151    7.049902   15.625795    ( 0.0000,  0.0000,  0.0000)
  36 N      0.107201    0.892484   14.719871    ( 0.0000,  0.0000,  0.0000)
  37 N      6.823783    8.778943   14.829418    ( 0.0000,  0.0000,  0.0000)

Unit cell:
           periodic     x           y           z      points  spacing
  1. axis:    yes    9.702222    0.000000    0.000000    60     0.1617
  2. axis:    yes    0.000000    9.702222    0.000000    60     0.1617
  3. axis:    no     0.000000    0.000000   24.851111   156     0.1593

  Lengths:   9.702222   9.702222  24.851111
  Angles:   90.000000  90.000000  90.000000

Effective grid spacing dv^(1/3) = 0.1609

     iter     time        total  log10-change:
                         energy  eigst   dens
iter:   1 20:21:21  -232.459068  -0.83
iter:   2 20:21:51  -232.430570  -1.51  -1.67
iter:   3 20:22:19  -232.429070  -2.09  -2.07
iter:   4 20:22:55  -232.425366c -1.72  -2.19
Writing to output.gpw (mode='')

iter:   5 20:23:28  -232.425174c -2.78  -2.47
iter:   6 20:24:00  -232.425545c -2.51  -2.60
iter:   7 20:24:36  -232.425034c -2.30  -2.50
iter:   8 20:25:09  -232.425040c -2.97  -2.82
iter:   9 20:25:38  -232.424914c -3.42  -2.85
Writing to output.gpw (mode='')

iter:  10 20:26:09  -232.424919c -3.50  -3.06
iter:  11 20:26:40  -232.424916c -3.83  -3.20
iter:  12 20:27:07  -232.424908c -4.01  -3.27
iter:  13 20:27:37  -232.424910c -4.21  -3.32
iter:  14 20:28:06  -232.424910c -4.17  -3.43
Writing to output.gpw (mode='')

iter:  15 20:28:40  -232.424918c -4.52  -3.57
iter:  16 20:29:33  -232.424919c -4.75  -3.61
iter:  17 20:30:13  -232.424926c -4.71  -3.68
iter:  18 20:30:38  -232.424927c -5.08  -3.87
iter:  19 20:31:03  -232.424929c -5.23  -3.90
Writing to output.gpw (mode='')

iter:  20 20:31:29  -232.424930c -5.26  -3.98
iter:  21 20:31:53  -232.424931c -5.33  -4.06c
iter:  22 20:32:26  -232.424931c -5.46  -4.14c
iter:  23 20:33:00  -232.424931c -5.64  -4.23c
iter:  24 20:33:27  -232.424931c -5.84  -4.52c
Writing to output.gpw (mode='')

iter:  25 20:33:56  -232.424932c -5.89  -4.57c
iter:  26 20:34:24  -232.424932c -5.94  -4.66c
iter:  27 20:34:53  -232.424932c -6.12  -4.71c
iter:  28 20:35:27  -232.424932c -6.32  -4.76c
iter:  29 20:36:17  -232.424932c -6.44  -4.92c
Writing to output.gpw (mode='')

iter:  30 20:37:06  -232.424932c -6.52  -4.97c
iter:  31 20:37:35  -232.424932c -6.49  -4.97c
iter:  32 20:38:04  -232.424932c -6.61  -4.99c
iter:  33 20:38:41  -232.424932c -6.83  -5.05c
iter:  34 20:39:09  -232.424932c -6.98  -5.22c
Writing to output.gpw (mode='')

iter:  35 20:39:40  -232.424932c -7.04  -5.41c
iter:  36 20:40:05  -232.424932c -7.16  -5.42c
iter:  37 20:40:30  -232.424932c -7.24  -5.40c
iter:  38 20:41:00  -232.424932c -7.43c -5.37c

Converged after 38 iterations.

Dipole moment: (-14.171556, -4.302564, 0.174151) |e|*Ang

Energy contributions relative to reference atoms: (reference = -10263.804537)

Kinetic:        +90.252365
Potential:      -77.409087
External:        +0.000000
XC:            -245.515143
Entropy (-ST):   -0.160866
Local:           +0.327365
--------------------------
Free energy:   -232.505365
Extrapolated:  -232.424932

Dipole-layer corrected work functions: 3.410979, 3.076201 eV

Showing only first 2 kpts
 Kpt  Band  Eigenvalues  Occupancy
  0    21     -3.33926    1.74280
  0    22     -3.26670    1.22711
  0    23     -3.24874    1.05142
  0    24     -3.08364    0.07841

  1    21     -3.46260    1.97526
  1    22     -3.28774    1.41487
  1    23     -3.16447    0.34093
  1    24     -3.07474    0.06604


Fermi level: -3.24359

No gap
Writing to output.gpw (mode='')


Forces in eV/Ang:
  0 Li    0.03043   -0.00139   -0.28974
  1 Li    0.00317    0.01414   -0.27998
  2 Li   -0.01546    0.00471   -0.30905
  3 Li    0.00502   -0.00638   -0.30024
  4 Li   -0.00572   -0.02114   -0.29055
  5 Li    0.00618    0.01053   -0.30046
  6 Li   -0.01817   -0.02262   -0.29116
  7 Li   -0.00370    0.00079   -0.30343
  8 Li    0.01361   -0.01144   -0.25770
  9 Li   -0.03788    0.02655    0.33443
 10 Li    0.07053   -0.03142    0.29769
 11 Li   -0.03050    0.03333    0.25014
 12 Li   -0.11368   -0.00247    0.28175
 13 Li   -0.04704   -0.00915    0.32036
 14 Li    0.04024   -0.07806    0.32305
 15 Li   -0.00465    0.02491    0.30945
 16 Li    0.00695    0.16514    0.43140
 17 Li    0.01981    0.02127    0.18338
 18 Li    0.02262   -0.09456    0.09041
 19 Li    0.04088   -0.00040   -0.00322
 20 Li   -0.05232    0.02388   -0.00916
 21 Li    0.05157    0.01563   -0.04037
 22 Li   -0.02953   -0.04262    0.04868
 23 Li    0.05484   -0.00212    0.00374
 24 Li   -0.12937    0.08697    0.08220
 25 Li   -0.20960   -0.04207   -0.08927
 26 Li    0.02066   -0.08807   -0.02586
 27 Li    0.13662   -0.04689    0.10278
 28 Li    0.12663   -0.00015   -0.11123
 29 Li   -0.24562    0.14806   -0.00022
 30 Li   -0.07458    0.07976    0.03905
 31 Li   -0.10503   -0.00074    0.00208
 32 Li    0.04368   -0.01215    0.00459
 33 Li    0.01113   -0.09474    0.02289
 34 Li    0.01645    0.04334    0.00392
 35 Li   -0.06119   -0.00329   -0.13190
 36 N     0.18824   -0.20693   -0.15161
 37 N     0.29431    0.12864   -0.01235

System changes: positions 

Initializing position-dependent things.

Density initialized from wave functions
       .-----------------------.  
      /|                       |  
     / |                       |  
    /  |                       |  
   /   |                       |  
  /    |                       |  
 *     |                       |  
 |     |                       |  
 |     |                       |  
 |     |                       |  
 |     |                       |  
 |     |                       |  
 |     |                    Li |  
 |     |              Li       |  
 |   Li|     Li                |  
 |     |  Li       Li     Li   |  
 |     |   Li             Li   |  
 |   Li|Li      Li      Li     |  
 |N    |                       |  
 |   Li|     LLi     Li        |  
 |     |  Li      Li      Li   |  
 | Li  |   Li      Li          |  
 |     |Li      Li      Li     |  
 Li    | Li      Li            |  
 |    Li      Li      Li       |  
 |     |                       |  
 |     |                       |  
 |     |                       |  
 |     |                       |  
 |     |                       |  
 |     |                       |  
 |     .-----------------------.  
 |    /                       /   
 |   /                       /    
 |  /                       /     
 | /                       /      
 |/                       /       
 *-----------------------*        

Positions:
   0 Li     1.617037    1.617037   10.000000    ( 0.0000,  0.0000,  0.0000)
   1 Li     4.851111    1.617037   10.000000    ( 0.0000,  0.0000,  0.0000)
   2 Li     8.085185    1.617037   10.000000    ( 0.0000,  0.0000,  0.0000)
   3 Li     1.617037    4.851111   10.000000    ( 0.0000,  0.0000,  0.0000)
   4 Li     4.851111    4.851111   10.000000    ( 0.0000,  0.0000,  0.0000)
   5 Li     8.085185    4.851111   10.000000    ( 0.0000,  0.0000,  0.0000)
   6 Li     1.617037    8.085185   10.000000    ( 0.0000,  0.0000,  0.0000)
   7 Li     4.851111    8.085185   10.000000    ( 0.0000,  0.0000,  0.0000)
   8 Li     8.085185    8.085185   10.000000    ( 0.0000,  0.0000,  0.0000)
   9 Li     0.000000    0.000000   11.617037    ( 0.0000,  0.0000,  0.0000)
  10 Li     3.234074    0.000000   11.617037    ( 0.0000,  0.0000,  0.0000)
  11 Li     6.468148    0.000000   11.617037    ( 0.0000,  0.0000,  0.0000)
  12 Li     0.000000    3.234074   11.617037    ( 0.0000,  0.0000,  0.0000)
  13 Li     3.234074    3.234074   11.617037    ( 0.0000,  0.0000,  0.0000)
  14 Li     6.468148    3.234074   11.617037    ( 0.0000,  0.0000,  0.0000)
  15 Li     0.000000    6.468148   11.617037    ( 0.0000,  0.0000,  0.0000)
  16 Li     3.234074    6.468148   11.617037    ( 0.0000,  0.0000,  0.0000)
  17 Li     6.468148    6.468148   11.617037    ( 0.0000,  0.0000,  0.0000)
  18 Li     1.402232    1.600710   13.466069    ( 0.0000,  0.0000,  0.0000)
  19 Li     4.798984    1.707554   13.564772    ( 0.0000,  0.0000,  0.0000)
  20 Li     8.012130    1.080357   13.844494    ( 0.0000,  0.0000,  0.0000)
  21 Li     1.604547    4.869050   13.493287    ( 0.0000,  0.0000,  0.0000)
  22 Li     4.901401    4.934104   13.439609    ( 0.0000,  0.0000,  0.0000)
  23 Li     8.042872    4.833019   13.511841    ( 0.0000,  0.0000,  0.0000)
  24 Li     1.486964    8.294239   13.630352    ( 0.0000,  0.0000,  0.0000)
  25 Li     5.272172    8.331535   13.804319    ( 0.0000,  0.0000,  0.0000)
  26 Li     8.028094    8.050348   13.518050    ( 0.0000,  0.0000,  0.0000)
  27 Li    -1.192109   -0.279720   15.582333    ( 0.0000,  0.0000,  0.0000)
  28 Li     1.510570    0.328198   15.838996    ( 0.0000,  0.0000,  0.0000)
  29 Li     5.814113    0.247963   15.887619    ( 0.0000,  0.0000,  0.0000)
  30 Li    -0.066929    2.678672   15.260310    ( 0.0000,  0.0000,  0.0000)
  31 Li     3.362335    3.304845   15.454321    ( 0.0000,  0.0000,  0.0000)
  32 Li     6.329539    3.735814   15.600846    ( 0.0000,  0.0000,  0.0000)
  33 Li     0.110220    6.157576   15.487476    ( 0.0000,  0.0000,  0.0000)
  34 Li     3.263083    6.463806   15.363242    ( 0.0000,  0.0000,  0.0000)
  35 Li     6.705120    7.063015   15.618111    ( 0.0000,  0.0000,  0.0000)
  36 N      0.103829    0.873539   14.697045    ( 0.0000,  0.0000,  0.0000)
  37 N      6.816794    8.795307   14.822255    ( 0.0000,  0.0000,  0.0000)

Unit cell:
           periodic     x           y           z      points  spacing
  1. axis:    yes    9.702222    0.000000    0.000000    60     0.1617
  2. axis:    yes    0.000000    9.702222    0.000000    60     0.1617
  3. axis:    no     0.000000    0.000000   24.851111   156     0.1593

  Lengths:   9.702222   9.702222  24.851111
  Angles:   90.000000  90.000000  90.000000

Effective grid spacing dv^(1/3) = 0.1609

     iter     time        total  log10-change:
                         energy  eigst   dens
iter:   1 20:41:41  -232.473265  -0.82
iter:   2 20:42:25  -232.441268  -1.48  -1.65
iter:   3 20:42:59  -232.439574  -2.07  -2.05
iter:   4 20:43:35  -232.435747c -1.67  -2.17
Writing to output.gpw (mode='')

iter:   5 20:44:10  -232.435388c -2.73  -2.44
iter:   6 20:44:40  -232.435742c -2.46  -2.59
iter:   7 20:45:09  -232.435208c -2.31  -2.49
iter:   8 20:45:39  -232.435196c -2.99  -2.80
iter:   9 20:46:09  -232.435066c -3.35  -2.85
Writing to output.gpw (mode='')

iter:  10 20:46:39  -232.435125c -3.48  -3.13
iter:  11 20:47:08  -232.435096c -3.82  -3.15
iter:  12 20:47:36  -232.435103c -4.03  -3.25
iter:  13 20:48:13  -232.435110c -3.65  -3.24
iter:  14 20:48:43  -232.435078c -4.19  -3.09
Writing to output.gpw (mode='')

iter:  15 20:49:14  -232.435090c -4.44  -3.31
iter:  16 20:50:14  -232.435098c -4.56  -3.35
iter:  17 20:50:59  -232.435137c -3.96  -3.34
iter:  18 20:51:28  -232.435136c -4.29  -3.17
iter:  19 20:51:59  -232.435117c -4.95  -3.16
Writing to output.gpw (mode='')

iter:  20 20:52:28  -232.435102c -4.02  -3.23
iter:  21 20:52:59  -232.435110c -4.41  -3.35
iter:  22 20:53:29  -232.435112c -4.72  -3.85
iter:  23 20:53:59  -232.435112c -5.13  -3.86
iter:  24 20:54:29  -232.435109c -5.67  -3.87
Writing to output.gpw (mode='')

iter:  25 20:54:59  -232.435107c -5.46  -3.97
iter:  26 20:55:26  -232.435108c -5.60  -4.23c
iter:  27 20:55:56  -232.435109c -5.88  -4.30c
iter:  28 20:56:26  -232.435108c -6.09  -4.32c
iter:  29 20:56:56  -232.435109c -6.26  -4.39c
Writing to output.gpw (mode='')

iter:  30 20:57:23  -232.435108c -6.36  -4.48c
iter:  31 20:57:51  -232.435108c -6.50  -4.60c
iter:  32 20:58:17  -232.435108c -6.49  -4.66c
iter:  33 20:58:42  -232.435108c -6.80  -4.79c
iter:  34 20:59:06  -232.435109c -6.80  -4.84c
Writing to output.gpw (mode='')

iter:  35 20:59:38  -232.435109c -7.08  -5.09c
iter:  36 21:00:20  -232.435108c -6.96  -5.08c
iter:  37 21:00:50  -232.435109c -7.07  -5.07c
iter:  38 21:01:20  -232.435109c -7.22  -5.20c
iter:  39 21:01:50  -232.435109c -7.38  -5.28c
Writing to output.gpw (mode='')

iter:  40 21:02:20  -232.435109c -7.58c -5.43c

Converged after 40 iterations.

Dipole moment: (-14.146307, -4.498915, 0.173913) |e|*Ang

Energy contributions relative to reference atoms: (reference = -10263.804537)

Kinetic:        +90.202447
Potential:      -77.350637
External:        +0.000000
XC:            -245.534160
Entropy (-ST):   -0.160921
Local:           +0.327700
--------------------------
Free energy:   -232.515569
Extrapolated:  -232.435109

Dipole-layer corrected work functions: 3.409545, 3.075224 eV

Showing only first 2 kpts
 Kpt  Band  Eigenvalues  Occupancy
  0    21     -3.33694    1.73777
  0    22     -3.26674    1.23887
  0    23     -3.24839    1.05994
  0    24     -3.08120    0.07656

  1    21     -3.46342    1.97623
  1    22     -3.28577    1.40850
  1    23     -3.16128    0.32985
  1    24     -3.07181    0.06387


Fermi level: -3.24238

No gap

Forces in eV/Ang:
  0 Li    0.03116   -0.00146   -0.29111
  1 Li    0.00294    0.01355   -0.27869
  2 Li   -0.01579    0.00427   -0.31252
  3 Li    0.00472   -0.00696   -0.29965
  4 Li   -0.00623   -0.02096   -0.28988
  5 Li    0.00594    0.01069   -0.29986
  6 Li   -0.01851   -0.02157   -0.29117
  7 Li   -0.00407    0.00084   -0.30444
  8 Li    0.01417   -0.01140   -0.25657
  9 Li   -0.04211    0.03354    0.34546
 10 Li    0.07098   -0.03353    0.29468
 11 Li   -0.03763    0.02774    0.25096
 12 Li   -0.11459   -0.00514    0.28324
 13 Li   -0.04231   -0.01281    0.31671
 14 Li    0.04082   -0.07914    0.32271
 15 Li   -0.00054    0.02158    0.30806
 16 Li    0.00554    0.16859    0.43318
 17 Li    0.02071    0.02264    0.18056
 18 Li    0.03838   -0.09791    0.08213
 19 Li    0.04085    0.00198   -0.00698
 20 Li   -0.09305    0.05106   -0.05768
 21 Li    0.04751    0.02059   -0.03443
 22 Li   -0.03136   -0.04281    0.05580
 23 Li    0.05405   -0.00368    0.00902
 24 Li   -0.13937    0.09778    0.09384
 25 Li   -0.19650   -0.03117   -0.09574
 26 Li    0.00761   -0.07109    0.00845
 27 Li    0.14365   -0.10281    0.11955
 28 Li    0.13971   -0.00415   -0.13028
 29 Li   -0.23390    0.12773   -0.00763
 30 Li   -0.08212    0.10194    0.03468
 31 Li   -0.11254   -0.00134    0.00000
 32 Li    0.04613   -0.01212    0.00073
 33 Li    0.00653   -0.09168    0.02093
 34 Li    0.01214    0.03679    0.00243
 35 Li   -0.06441   -0.00285   -0.12510
 36 N     0.20740   -0.20519   -0.04407
 37 N     0.30852    0.12106   -0.00545

System changes: positions 

Initializing position-dependent things.

Density initialized from wave functions
       .-----------------------.  
      /|                       |  
     / |                       |  
    /  |                       |  
   /   |                       |  
  /    |                       |  
 *     |                       |  
 |     |                       |  
 |     |                       |  
 |     |                       |  
 |     |                       |  
 |     |                       |  
 |     |                    Li |  
 |     |              Li       |  
 |   Li|     Li                |  
 |     |  Li       Li     Li   |  
 |     |   Li             Li   |  
 |   Li|Li      Li      Li     |  
 |N    |                       |  
 |   Li|     LLi     Li        |  
 |     |  Li      Li      Li   |  
 | Li  |   Li      Li          |  
 |     |Li      Li      Li     |  
 Li    | Li      Li            |  
 |    Li      Li      Li       |  
 |     |                       |  
 |     |                       |  
 |     |                       |  
 |     |                       |  
 |     |                       |  
 |     |                       |  
 |     .-----------------------.  
 |    /                       /   
 |   /                       /    
 |  /                       /     
 | /                       /      
 |/                       /       
 *-----------------------*        

Positions:
   0 Li     1.617037    1.617037   10.000000    ( 0.0000,  0.0000,  0.0000)
   1 Li     4.851111    1.617037   10.000000    ( 0.0000,  0.0000,  0.0000)
   2 Li     8.085185    1.617037   10.000000    ( 0.0000,  0.0000,  0.0000)
   3 Li     1.617037    4.851111   10.000000    ( 0.0000,  0.0000,  0.0000)
   4 Li     4.851111    4.851111   10.000000    ( 0.0000,  0.0000,  0.0000)
   5 Li     8.085185    4.851111   10.000000    ( 0.0000,  0.0000,  0.0000)
   6 Li     1.617037    8.085185   10.000000    ( 0.0000,  0.0000,  0.0000)
   7 Li     4.851111    8.085185   10.000000    ( 0.0000,  0.0000,  0.0000)
   8 Li     8.085185    8.085185   10.000000    ( 0.0000,  0.0000,  0.0000)
   9 Li     0.000000    0.000000   11.617037    ( 0.0000,  0.0000,  0.0000)
  10 Li     3.234074    0.000000   11.617037    ( 0.0000,  0.0000,  0.0000)
  11 Li     6.468148    0.000000   11.617037    ( 0.0000,  0.0000,  0.0000)
  12 Li     0.000000    3.234074   11.617037    ( 0.0000,  0.0000,  0.0000)
  13 Li     3.234074    3.234074   11.617037    ( 0.0000,  0.0000,  0.0000)
  14 Li     6.468148    3.234074   11.617037    ( 0.0000,  0.0000,  0.0000)
  15 Li     0.000000    6.468148   11.617037    ( 0.0000,  0.0000,  0.0000)
  16 Li     3.234074    6.468148   11.617037    ( 0.0000,  0.0000,  0.0000)
  17 Li     6.468148    6.468148   11.617037    ( 0.0000,  0.0000,  0.0000)
  18 Li     1.409248    1.598143   13.460869    ( 0.0000,  0.0000,  0.0000)
  19 Li     4.802238    1.706630   13.567326    ( 0.0000,  0.0000,  0.0000)
  20 Li     8.009215    1.053199   13.861171    ( 0.0000,  0.0000,  0.0000)
  21 Li     1.615075    4.863388   13.486899    ( 0.0000,  0.0000,  0.0000)
  22 Li     4.901439    4.931030   13.439347    ( 0.0000,  0.0000,  0.0000)
  23 Li     8.048356    4.835233   13.507982    ( 0.0000,  0.0000,  0.0000)
  24 Li     1.474686    8.302347   13.632042    ( 0.0000,  0.0000,  0.0000)
  25 Li     5.259066    8.323707   13.806418    ( 0.0000,  0.0000,  0.0000)
  26 Li     8.031529    8.039505   13.508945    ( 0.0000,  0.0000,  0.0000)
  27 Li    -1.190053   -0.257064   15.585044    ( 0.0000,  0.0000,  0.0000)
  28 Li     1.513320    0.329087   15.834780    ( 0.0000,  0.0000,  0.0000)
  29 Li     5.797449    0.264256   15.879859    ( 0.0000,  0.0000,  0.0000)
  30 Li    -0.071406    2.659020   15.254463    ( 0.0000,  0.0000,  0.0000)
  31 Li     3.361658    3.308249   15.460822    ( 0.0000,  0.0000,  0.0000)
  32 Li     6.333328    3.740297   15.608582    ( 0.0000,  0.0000,  0.0000)
  33 Li     0.113357    6.142667   15.493983    ( 0.0000,  0.0000,  0.0000)
  34 Li     3.268287    6.477398   15.365094    ( 0.0000,  0.0000,  0.0000)
  35 Li     6.707300    7.069079   15.602136    ( 0.0000,  0.0000,  0.0000)
  36 N      0.110678    0.862997   14.671717    ( 0.0000,  0.0000,  0.0000)
  37 N      6.819386    8.809626   14.817750    ( 0.0000,  0.0000,  0.0000)

Unit cell:
           periodic     x           y           z      points  spacing
  1. axis:    yes    9.702222    0.000000    0.000000    60     0.1617
  2. axis:    yes    0.000000    9.702222    0.000000    60     0.1617
  3. axis:    no     0.000000    0.000000   24.851111   156     0.1593

  Lengths:   9.702222   9.702222  24.851111
  Angles:   90.000000  90.000000  90.000000

Effective grid spacing dv^(1/3) = 0.1609

     iter     time        total  log10-change:
                         energy  eigst   dens
iter:   1 21:03:02  -232.470621  -0.88
iter:   2 21:03:31  -232.456105  -1.57  -1.78
iter:   3 21:04:01  -232.455285c -2.12  -2.11
iter:   4 21:04:26  -232.451850c -1.89  -2.20
Writing to output.gpw (mode='')

iter:   5 21:04:54  -232.451743c -2.53  -2.48
iter:   6 21:05:24  -232.451566c -2.56  -2.58
iter:   7 21:05:53  -232.451634c -2.36  -2.60
iter:   8 21:06:22  -232.451476c -3.22  -2.76
iter:   9 21:06:59  -232.451457c -3.30  -2.96
Writing to output.gpw (mode='')

iter:  10 21:07:35  -232.451483c -3.57  -3.10
iter:  11 21:08:06  -232.451449c -3.76  -3.16
iter:  12 21:08:44  -232.451458c -3.99  -3.22
iter:  13 21:09:13  -232.451466c -4.21  -3.21
iter:  14 21:09:47  -232.451466c -4.09  -3.31
Writing to output.gpw (mode='')

iter:  15 21:10:24  -232.451464c -4.49  -3.37
iter:  16 21:10:58  -232.451474c -4.65  -3.58
iter:  17 21:11:32  -232.451473c -4.82  -3.77
iter:  18 21:12:03  -232.451479c -4.92  -3.78
iter:  19 21:12:55  -232.451483c -4.88  -3.83
Writing to output.gpw (mode='')

iter:  20 21:13:30  -232.451483c -5.23  -3.94
iter:  21 21:14:07  -232.451482c -5.17  -3.98
iter:  22 21:14:37  -232.451483c -5.36  -4.23c
iter:  23 21:15:07  -232.451485c -5.66  -4.22c
iter:  24 21:15:37  -232.451485c -5.79  -4.25c
Writing to output.gpw (mode='')

iter:  25 21:16:05  -232.451486c -5.72  -4.27c
iter:  26 21:16:34  -232.451486c -6.12  -4.30c
iter:  27 21:17:03  -232.451486c -5.98  -4.28c
iter:  28 21:17:33  -232.451486c -6.24  -4.19c
iter:  29 21:18:03  -232.451486c -6.18  -4.24c
Writing to output.gpw (mode='')

iter:  30 21:18:33  -232.451487c -6.48  -4.25c
iter:  31 21:19:20  -232.451485c -6.38  -4.24c
iter:  32 21:20:33  -232.451485c -6.52  -4.30c
iter:  33 21:21:50  -232.451486c -6.40  -4.36c
iter:  34 21:22:28  -232.451485c -6.81  -4.40c
Writing to output.gpw (mode='')

iter:  35 21:23:02  -232.451486c -6.72  -4.42c
iter:  36 21:23:32  -232.451486c -6.84  -4.60c
iter:  37 21:24:10  -232.451485c -6.75  -4.71c
iter:  38 21:24:34  -232.451485c -7.15  -5.01c
iter:  39 21:25:11  -232.451485c -7.29  -5.07c
Writing to output.gpw (mode='')

iter:  40 21:25:47  -232.451485c -7.25  -5.13c
iter:  41 21:26:22  -232.451485c -7.39  -5.14c
iter:  42 21:26:54  -232.451485c -7.60c -5.21c

Converged after 42 iterations.

Dipole moment: (-14.337164, -4.772382, 0.172349) |e|*Ang

Energy contributions relative to reference atoms: (reference = -10263.804537)

Kinetic:        +89.891640
Potential:      -77.105922
External:        +0.000000
XC:            -245.484090
Entropy (-ST):   -0.161102
Local:           +0.327438
--------------------------
Free energy:   -232.532036
Extrapolated:  -232.451485

Dipole-layer corrected work functions: 3.407605, 3.076291 eV

Showing only first 2 kpts
 Kpt  Band  Eigenvalues  Occupancy
  0    21     -3.33679    1.73905
  0    22     -3.26638    1.23960
  0    23     -3.24864    1.06682
  0    24     -3.08032    0.07592

  1    21     -3.46541    1.97735
  1    22     -3.28442    1.40087
  1    23     -3.15874    0.31843
  1    24     -3.06947    0.06156


Fermi level: -3.24195

No gap
Writing to output.gpw (mode='')


Forces in eV/Ang:
  0 Li    0.03165   -0.00132   -0.29309
  1 Li    0.00253    0.01334   -0.27733
  2 Li   -0.01625    0.00435   -0.31663
  3 Li    0.00444   -0.00776   -0.29851
  4 Li   -0.00709   -0.02078   -0.28950
  5 Li    0.00607    0.01098   -0.29881
  6 Li   -0.01932   -0.02088   -0.29053
  7 Li   -0.00417    0.00097   -0.30547
  8 Li    0.01508   -0.01195   -0.25617
[...]

  Lengths:   9.702222   9.702222  24.851111
  Angles:   90.000000  90.000000  90.000000

Effective grid spacing dv^(1/3) = 0.1609

     iter     time        total  log10-change:
                         energy  eigst   dens
iter:   1 10:31:20  -232.910119  -2.28
iter:   2 10:36:51  -232.909882  -2.95  -2.62
iter:   3 10:42:32  -232.909867c -3.40  -2.86
iter:   4 10:46:47  -232.909770c -3.43  -2.95
Writing to output.gpw (mode='')

iter:   5 10:51:56  -232.909798c -3.96  -3.25
iter:   6 10:57:28  -232.909804c -3.91  -3.29
iter:   7 11:02:13  -232.909808c -3.86  -3.49
iter:   8 11:08:21  -232.909799c -4.57  -3.62
iter:   9 11:12:55  -232.909803c -4.64  -3.83
Writing to output.gpw (mode='')

iter:  10 11:18:23  -232.909807c -4.83  -3.97
iter:  11 11:20:59  -232.909806c -5.22  -4.00
iter:  12 11:25:31  -232.909808c -5.42  -4.12c
iter:  13 11:30:49  -232.909808c -5.57  -4.19c
iter:  14 11:34:02  -232.909808c -5.66  -4.38c
Writing to output.gpw (mode='')

iter:  15 11:37:52  -232.909808c -5.91  -4.47c
iter:  16 11:42:31  -232.909808c -6.04  -4.60c
iter:  17 11:47:19  -232.909807c -6.15  -4.65c
iter:  18 11:50:12  -232.909807c -6.29  -4.72c
iter:  19 11:54:32  -232.909807c -6.44  -4.79c
Writing to output.gpw (mode='')

iter:  20 11:58:54  -232.909808c -6.67  -4.87c
iter:  21 12:03:06  -232.909808c -6.78  -4.95c
iter:  22 12:07:22  -232.909808c -7.05  -5.03c
iter:  23 12:12:02  -232.909808c -7.02  -5.21c
iter:  24 12:15:37  -232.909808c -7.24  -5.28c
Writing to output.gpw (mode='')

iter:  25 12:19:06  -232.909808c -7.28  -5.30c
iter:  26 12:23:21  -232.909808c -7.44c -5.45c

Converged after 26 iterations.

Dipole moment: (-10.270975, -6.572695, 0.140720) |e|*Ang

Energy contributions relative to reference atoms: (reference = -10263.804537)

Kinetic:        +92.256206
Potential:      -78.214017
External:        +0.000000
XC:            -247.184486
Entropy (-ST):   -0.165055
Local:           +0.315016
--------------------------
Free energy:   -232.992336
Extrapolated:  -232.909808

Dipole-layer corrected work functions: 3.359937, 3.089424 eV

Showing only first 2 kpts
 Kpt  Band  Eigenvalues  Occupancy
  0    21     -3.33364    1.79673
  0    22     -3.25419    1.28680
  0    23     -3.20128    0.77020
  0    24     -3.03920    0.04780

  1    21     -3.50557    1.99276
  1    22     -3.28406    1.53263
  1    23     -3.11937    0.21697
  1    24     -2.98673    0.01700


Fermi level: -3.22468

No gap
Writing to output.gpw (mode='')


Forces in eV/Ang:
  0 Li    0.02763    0.00987   -0.35407
  1 Li   -0.01032    0.00937   -0.23185
  2 Li   -0.01441    0.01643   -0.31373
  3 Li   -0.00372   -0.02628   -0.28297
  4 Li   -0.00308   -0.02241   -0.27562
  5 Li    0.00584    0.01511   -0.28228
  6 Li   -0.02906   -0.01909   -0.30721
  7 Li    0.00029   -0.00071   -0.29830
  8 Li    0.02586   -0.00731   -0.26716
  9 Li   -0.03921    0.14526    0.48008
 10 Li    0.08536   -0.11523    0.28247
 11 Li   -0.05414   -0.01086    0.28494
 12 Li   -0.14090   -0.02591    0.20031
 13 Li    0.03375    0.08146    0.21077
 14 Li    0.07116   -0.05290    0.26519
 15 Li    0.02623   -0.04611    0.21065
 16 Li   -0.00739    0.19369    0.44223
 17 Li   -0.05684   -0.05713    0.13706
 18 Li    0.00628    0.00049   -0.01476
 19 Li    0.00163   -0.00001    0.00347
 20 Li   -0.00106   -0.00677    0.01041
 21 Li    0.00213    0.00668    0.01283
 22 Li   -0.00244   -0.00428    0.00075
 23 Li   -0.00265   -0.00037    0.00614
 24 Li    0.00553    0.00666    0.00376
 25 Li   -0.01501   -0.00573   -0.01317
 26 Li    0.01737    0.00430   -0.03176
 27 Li    0.00260   -0.02235    0.01168
 28 Li   -0.00335   -0.00908    0.01095
 29 Li    0.00535   -0.01621   -0.01030
 30 Li   -0.00575    0.01313   -0.01321
 31 Li   -0.00371   -0.01216    0.00325
 32 Li    0.00711   -0.00224    0.00282
 33 Li    0.00381   -0.00762    0.00430
 34 Li    0.00378    0.00154   -0.00019
 35 Li   -0.00458   -0.01204    0.00655
 36 N     0.03193   -0.03442    0.03309
 37 N     0.01754    0.03226    0.04163

System changes: positions 

Initializing position-dependent things.

Density initialized from wave functions
       .-----------------------.  
      /|                       |  
     / |                       |  
    /  |                       |  
   /   |                       |  
  /    |                       |  
 *     |                       |  
 |     |                       |  
 |     |                       |  
 |     |                       |  
 |     |                       |  
 |     |                       |  
 |     |                    Li |  
 |     |              LiN      |  
 |   Li|     Li                |  
 |     | Li        Li     Li   |  
 |     |   Li                  |  
 |     |Li      Li      LiLi   |  
 |    Li                       |  
 |N  Li|     LLi     Li        |  
 |    Li  Li      Li      Li   |  
 | Li  |   Li      Li          |  
 |     |Li      Li      Li     |  
 Li    | Li      Li            |  
 |    Li      Li      Li       |  
 |     |                       |  
 |     |                       |  
 |     |                       |  
 |     |                       |  
 |     |                       |  
 |     |                       |  
 |     .-----------------------.  
 |    /                       /   
 |   /                       /    
 |  /                       /     
 | /                       /      
 |/                       /       
 *-----------------------*        

Positions:
   0 Li     1.617037    1.617037   10.000000    ( 0.0000,  0.0000,  0.0000)
   1 Li     4.851111    1.617037   10.000000    ( 0.0000,  0.0000,  0.0000)
   2 Li     8.085185    1.617037   10.000000    ( 0.0000,  0.0000,  0.0000)
   3 Li     1.617037    4.851111   10.000000    ( 0.0000,  0.0000,  0.0000)
   4 Li     4.851111    4.851111   10.000000    ( 0.0000,  0.0000,  0.0000)
   5 Li     8.085185    4.851111   10.000000    ( 0.0000,  0.0000,  0.0000)
   6 Li     1.617037    8.085185   10.000000    ( 0.0000,  0.0000,  0.0000)
   7 Li     4.851111    8.085185   10.000000    ( 0.0000,  0.0000,  0.0000)
   8 Li     8.085185    8.085185   10.000000    ( 0.0000,  0.0000,  0.0000)
   9 Li     0.000000    0.000000   11.617037    ( 0.0000,  0.0000,  0.0000)
  10 Li     3.234074    0.000000   11.617037    ( 0.0000,  0.0000,  0.0000)
  11 Li     6.468148    0.000000   11.617037    ( 0.0000,  0.0000,  0.0000)
  12 Li     0.000000    3.234074   11.617037    ( 0.0000,  0.0000,  0.0000)
  13 Li     3.234074    3.234074   11.617037    ( 0.0000,  0.0000,  0.0000)
  14 Li     6.468148    3.234074   11.617037    ( 0.0000,  0.0000,  0.0000)
  15 Li     0.000000    6.468148   11.617037    ( 0.0000,  0.0000,  0.0000)
  16 Li     3.234074    6.468148   11.617037    ( 0.0000,  0.0000,  0.0000)
  17 Li     6.468148    6.468148   11.617037    ( 0.0000,  0.0000,  0.0000)
  18 Li     1.552274    1.565401   13.184283    ( 0.0000,  0.0000,  0.0000)
  19 Li     4.829129    1.826422   13.515820    ( 0.0000,  0.0000,  0.0000)
  20 Li     7.981838    0.865455   13.691078    ( 0.0000,  0.0000,  0.0000)
  21 Li     1.603048    4.847844   13.385483    ( 0.0000,  0.0000,  0.0000)
  22 Li     4.916947    4.962581   13.461028    ( 0.0000,  0.0000,  0.0000)
  23 Li     8.084160    4.773307   13.436503    ( 0.0000,  0.0000,  0.0000)
  24 Li     1.069537    8.449096   13.668964    ( 0.0000,  0.0000,  0.0000)
  25 Li     5.156389    8.499705   13.648221    ( 0.0000,  0.0000,  0.0000)
  26 Li     7.971602    7.934428   13.334047    ( 0.0000,  0.0000,  0.0000)
  27 Li    -0.998313   -0.459878   15.358998    ( 0.0000,  0.0000,  0.0000)
  28 Li     1.972687    0.393137   15.339736    ( 0.0000,  0.0000,  0.0000)
  29 Li     5.832514    0.401000   15.648024    ( 0.0000,  0.0000,  0.0000)
  30 Li    -0.044731    2.356669   14.924940    ( 0.0000,  0.0000,  0.0000)
  31 Li     3.228241    3.454936   15.383235    ( 0.0000,  0.0000,  0.0000)
  32 Li     6.473843    3.767819   15.556819    ( 0.0000,  0.0000,  0.0000)
  33 Li     0.017302    5.651581   15.561219    ( 0.0000,  0.0000,  0.0000)
  34 Li     3.140534    6.648844   15.101788    ( 0.0000,  0.0000,  0.0000)
  35 Li     6.605721    7.207762   15.318239    ( 0.0000,  0.0000,  0.0000)
  36 N      0.323791    0.521981   14.261828    ( 0.0000,  0.0000,  0.0000)
  37 N      6.857850    8.971577   14.515998    ( 0.0000,  0.0000,  0.0000)

Unit cell:
           periodic     x           y           z      points  spacing
  1. axis:    yes    9.702222    0.000000    0.000000    60     0.1617
  2. axis:    yes    0.000000    9.702222    0.000000    60     0.1617
  3. axis:    no     0.000000    0.000000   24.851111   156     0.1593

  Lengths:   9.702222   9.702222  24.851111
  Angles:   90.000000  90.000000  90.000000

Effective grid spacing dv^(1/3) = 0.1609

     iter     time        total  log10-change:
                         energy  eigst   dens
iter:   1 12:26:32  -232.910114  -2.55
iter:   2 12:31:47  -232.910024  -3.23  -2.78
iter:   3 12:35:28  -232.910011c -3.68  -2.98
iter:   4 12:38:55  -232.909921c -3.72  -3.05
Writing to output.gpw (mode='')

iter:   5 12:44:01  -232.909936c -4.16  -3.32
iter:   6 12:49:01  -232.909936c -4.01  -3.43
iter:   7 12:52:58  -232.909936c -4.15  -3.67
iter:   8 12:56:03  -232.909936c -4.80  -3.71
iter:   9 13:00:04  -232.909938c -4.87  -3.97
Writing to output.gpw (mode='')

iter:  10 13:03:49  -232.909940c -4.95  -4.08c
iter:  11 13:07:15  -232.909939c -5.40  -4.02c
iter:  12 13:10:59  -232.909940c -5.77  -4.23c
iter:  13 13:14:19  -232.909941c -5.80  -4.33c
iter:  14 13:16:48  -232.909941c -5.85  -4.59c
Writing to output.gpw (mode='')

iter:  15 13:20:46  -232.909941c -6.22  -4.64c
iter:  16 13:24:02  -232.909940c -6.32  -4.78c
iter:  17 13:27:23  -232.909940c -6.43  -4.84c
iter:  18 13:31:09  -232.909940c -6.60  -4.83c
iter:  19 13:34:21  -232.909940c -6.67  -4.86c
Writing to output.gpw (mode='')

iter:  20 13:38:19  -232.909941c -6.84  -4.89c
iter:  21 13:41:40  -232.909941c -6.97  -5.05c
iter:  22 13:44:39  -232.909941c -7.13  -5.21c
iter:  23 13:48:06  -232.909941c -7.34  -5.26c
iter:  24 13:52:14  -232.909941c -7.36  -5.30c
Writing to output.gpw (mode='')

iter:  25 13:56:22  -232.909941c -7.62c -5.44c

Converged after 25 iterations.

Dipole moment: (-10.298747, -6.546899, 0.140746) |e|*Ang

Energy contributions relative to reference atoms: (reference = -10263.804537)

Kinetic:        +92.221698
Potential:      -78.187676
External:        +0.000000
XC:            -247.176448
Entropy (-ST):   -0.165059
Local:           +0.315015
--------------------------
Free energy:   -232.992471
Extrapolated:  -232.909941

Dipole-layer corrected work functions: 3.359880, 3.089318 eV

Showing only first 2 kpts
 Kpt  Band  Eigenvalues  Occupancy
  0    21     -3.33351    1.79657
  0    22     -3.25389    1.28478
  0    23     -3.20112    0.76942
  0    24     -3.03906    0.04775

  1    21     -3.50577    1.99280
  1    22     -3.28412    1.53363
  1    23     -3.11908    0.21618
  1    24     -2.98692    0.01710


Fermi level: -3.22460

No gap

Forces in eV/Ang:
  0 Li    0.02751    0.00991   -0.35421
  1 Li   -0.01032    0.00945   -0.23169
  2 Li   -0.01438    0.01640   -0.31338
  3 Li   -0.00372   -0.02621   -0.28287
  4 Li   -0.00314   -0.02228   -0.27577
  5 Li    0.00581    0.01504   -0.28259
  6 Li   -0.02911   -0.01917   -0.30734
  7 Li    0.00027   -0.00081   -0.29789
  8 Li    0.02577   -0.00731   -0.26719
  9 Li   -0.03784    0.14448    0.48125
 10 Li    0.08470   -0.11545    0.28219
 11 Li   -0.05410   -0.01148    0.28442
 12 Li   -0.14051   -0.02526    0.20077
 13 Li    0.03390    0.08110    0.21198
 14 Li    0.07178   -0.05237    0.26559
 15 Li    0.02579   -0.04538    0.21098
 16 Li   -0.00717    0.19398    0.44177
 17 Li   -0.05516   -0.05726    0.13729
 18 Li    0.00571   -0.00265   -0.01533
 19 Li    0.00094    0.00115    0.00363
 20 Li    0.00025   -0.00372    0.01154
 21 Li    0.00170    0.00625    0.01174
 22 Li   -0.00212   -0.00527    0.00197
 23 Li   -0.00330    0.00133    0.00544
 24 Li    0.00505    0.00500    0.00112
 25 Li   -0.01557   -0.00269   -0.01138
 26 Li    0.01424    0.00852   -0.02938
 27 Li    0.00338   -0.02169    0.01108
 28 Li   -0.00248   -0.00921    0.01369
 29 Li    0.00236   -0.01193   -0.00558
 30 Li   -0.00624    0.01255   -0.00993
 31 Li   -0.00294   -0.01295    0.00286
 32 Li    0.00685   -0.00117    0.00247
 33 Li    0.00211   -0.00739    0.00403
 34 Li    0.00429    0.00178   -0.00134
 35 Li   -0.00571   -0.00763    0.00736
 36 N     0.02676   -0.02865    0.02769
 37 N     0.02532    0.01234    0.03650

Timing:                                      incl.     excl.
-------------------------------------------------------------------
Density initialized from wave functions:   327.764   327.760   0.1% |
 Symmetrize density:                         0.004     0.004   0.0% |
Forces:                                    378.752   378.752   0.1% |
Hamiltonian:                              8078.834     0.020   0.0% |
 Atomic:                                     9.226     0.112   0.0% |
  XC Correction:                             9.114     9.114   0.0% |
 Calculate atomic Hamiltonians:              9.367     9.367   0.0% |
 Communicate:                              170.691   170.691   0.1% |
 Hartree integrate/restrict:                 6.773     6.773   0.0% |
 Poisson:                                  205.209    97.532   0.0% |
  Communicate from 1D:                      20.011    20.011   0.0% |
  Communicate from 2D:                      32.142    32.142   0.0% |
  Communicate to 1D:                         2.985     2.985   0.0% |
  Communicate to 2D:                        23.905    23.905   0.0% |
  FFT 1D:                                   14.671    14.671   0.0% |
  FFT 2D:                                   13.963    13.963   0.0% |
 XC 3D grid:                              7676.678   594.748   0.2% |
  VdW-DF integral:                        7081.930     9.796   0.0% |
   Convolution:                            130.496   130.496   0.0% |
   FFT:                                     46.254    46.254   0.0% |
   gather:                                5840.394  5840.394   1.8% ||
   hmm1:                                    36.567    36.567   0.0% |
   hmm2:                                    39.310    39.310   0.0% |
   iFFT:                                    51.835    51.835   0.0% |
   potential:                              920.157     5.253   0.0% |
    collect:                               121.524   121.524   0.0% |
    p1:                                    154.874   154.874   0.0% |
    p2:                                     61.582    61.582   0.0% |
    sum:                                   576.925   576.925   0.2% |
   splines:                                  7.119     7.119   0.0% |
 vbar:                                       0.870     0.870   0.0% |
LCAO initialization:                         3.372     0.084   0.0% |
 LCAO eigensolver:                           1.291     0.001   0.0% |
  Calculate projections:                     0.000     0.000   0.0% |
  DenseAtomicCorrection:                     0.000     0.000   0.0% |
  Distribute overlap matrix:                 1.274     1.274   0.0% |
  Orbital Layouts:                           0.014     0.014   0.0% |
  Potential matrix:                          0.001     0.001   0.0% |
  Sum over cells:                            0.001     0.001   0.0% |
 LCAO to grid:                               1.468     1.468   0.0% |
 Set positions (LCAO WFS):                   0.530     0.388   0.0% |
  Basic WFS set positions:                   0.002     0.002   0.0% |
  Basis functions set positions:             0.000     0.000   0.0% |
  P tci:                                     0.001     0.001   0.0% |
  ST tci:                                    0.083     0.083   0.0% |
  mktci:                                     0.056     0.056   0.0% |
Redistribute:                                0.121     0.121   0.0% |
SCF-cycle:                               320005.994 22106.525   6.7% |--|
 Davidson:                               32257.635 13174.328   4.0% |-|
  Apply hamiltonian:                      2699.249  2699.249   0.8% |
  Subspace diag:                          4230.021     0.895   0.0% |
   calc_h_matrix:                         2880.633   328.046   0.1% |
    Apply hamiltonian:                    2552.587  2552.587   0.8% |
   diagonalize:                            363.140   363.140   0.1% |
   rotate_psi:                             985.353   985.353   0.3% |
  calc. matrices:                        10248.740  3970.583   1.2% |
   Apply hamiltonian:                     6278.158  6278.158   1.9% ||
  diagonalize:                              12.999    12.999   0.0% |
  rotate_psi:                             1892.298  1892.298   0.6% |
 Density:                                 1768.650     0.136   0.0% |
  Atomic density matrices:                 967.090   967.090   0.3% |
  Mix:                                     349.321   349.321   0.1% |
  Multipole moments:                        30.131    30.131   0.0% |
  Pseudo density:                          421.972   421.772   0.1% |
   Symmetrize density:                       0.199     0.199   0.0% |
 Hamiltonian:                            263823.702     0.698   0.0% |
  Atomic:                                  286.792     3.938   0.0% |
   XC Correction:                          282.854   282.854   0.1% |
  Calculate atomic Hamiltonians:           277.842   277.842   0.1% |
  Communicate:                            4850.390  4850.390   1.5% ||
  Hartree integrate/restrict:              202.579   202.579   0.1% |
  Poisson:                                6209.440  2999.027   0.9% |
   Communicate from 1D:                    544.248   544.248   0.2% |
   Communicate from 2D:                    981.675   981.675   0.3% |
   Communicate to 1D:                       91.747    91.747   0.0% |
   Communicate to 2D:                      697.045   697.045   0.2% |
   FFT 1D:                                 460.880   460.880   0.1% |
   FFT 2D:                                 434.818   434.818   0.1% |
  XC 3D grid:                            251970.914 18988.851   5.8% |-|
   VdW-DF integral:                      232982.064   308.132   0.1% |
    Convolution:                          4118.955  4118.955   1.3% ||
    FFT:                                  1429.247  1429.247   0.4% |
    gather:                              193766.005 193766.005  58.8% |-----------------------|
    hmm1:                                 1121.276  1121.276   0.3% |
    hmm2:                                 1220.272  1220.272   0.4% |
    iFFT:                                 1637.836  1637.836   0.5% |
    potential:                           29380.309   164.319   0.0% |
     collect:                             2334.039  2334.039   0.7% |
     p1:                                  4846.214  4846.214   1.5% ||
     p2:                                  1937.746  1937.746   0.6% |
     sum:                                20097.991 20097.991   6.1% |-|
    splines:                                 0.031     0.031   0.0% |
  vbar:                                     25.047    25.047   0.0% |
 Orthonormalize:                            49.481     0.023   0.0% |
  calc_s_matrix:                             6.295     6.295   0.0% |
  inverse-cholesky:                         27.784    27.784   0.0% |
  projections:                               0.007     0.007   0.0% |
  rotate_psi_s:                             15.372    15.372   0.0% |
Set symmetry:                                0.002     0.002   0.0% |
Other:                                     618.674   618.674   0.2% |
-------------------------------------------------------------------
Total:                                             329413.512 100.0%

Memory usage: 1.36 GiB
Date: Tue Jan  3 13:56:28 2023
