
  ___ ___ ___ _ _ _  
 |   |   |_  | | | | 
 | | | | | . | | | | 
 |__ |  _|___|_____|  22.8.0
 |___|_|             

User:   vazumah@f010
Date:   Wed Feb  1 14:51:51 2023
Arch:   x86_64
Pid:    41623
CWD:    /home/vazumah/Python_Projects/Li_NRR/Li_adsorb_studies/autocat/adsorbates/N1/bridge/8.085_1.617
Python: 3.10.6
gpaw:   /home/vazumah/anaconda3/envs/NAME/lib/python3.10/site-packages/gpaw
_gpaw:  /home/vazumah/anaconda3/envs/NAME/lib/python3.10/site-packages/
        _gpaw.cpython-310-x86_64-linux-gnu.so
ase:    /home/vazumah/anaconda3/envs/NAME/lib/python3.10/site-packages/ase (version 3.22.1)
numpy:  /home/vazumah/anaconda3/envs/NAME/lib/python3.10/site-packages/numpy (version 1.23.3)
scipy:  /home/vazumah/anaconda3/envs/NAME/lib/python3.10/site-packages/scipy (version 1.9.1)
libxc:  5.2.3
units:  Angstrom and eV
cores: 32
OpenMP: True
OMP_NUM_THREADS: 1

Input parameters:
  h: 0.16
  kpts: {size: [6, 6, 1]}
  occupations: {name: fermi-dirac,
                width: 0.05}
  poissonsolver: {dipolelayer: xy}
  symmetry: {point_group: False}
  xc: RPBE

System changes: positions, numbers, cell, pbc, initial_charges, initial_magmoms 

Initialize ...

species:
  Li:
    name: Lithium
    id: dcbe5181e2282205f1343ba35d013394
    Z: 3.0
    valence: 1
    core: 2
    charge: 0.0
    file: /home/vazumah/anaconda3/envs/NAME/share/gpaw/Li.RPBE.gz
    compensation charges: {type: gauss,
                           rc: 0.33,
                           lmax: 2}
    cutoffs: {filter: 1.91,
              core: 2.55}
    valence states:
      #              energy  rcut
      - 2s(1.00)    -2.901   1.058
      - 2p(0.00)    -1.114   1.058
      -  s          24.311   1.058
  
    # Using partial waves for Li as LCAO basis

  N:
    name: Nitrogen
    id: ee8436d228dc42b9589ef0e60c8ce05c
    Z: 7.0
    valence: 5
    core: 2
    charge: 0.0
    file: /home/vazumah/anaconda3/envs/NAME/share/gpaw/N.RPBE.gz
    compensation charges: {type: gauss,
                           rc: 0.18,
                           lmax: 2}
    cutoffs: {filter: 1.11,
              core: 0.96}
    valence states:
      #              energy  rcut
      - 2s(2.00)   -18.658   0.603
      - 2p(3.00)    -7.050   0.529
      -  s           8.553   0.603
      -  p          20.161   0.529
      -  d           0.000   0.577
  
    # Using partial waves for N as LCAO basis

Reference energy: -8815.035974  # eV

Spin-paired calculation

Convergence criteria:
 Maximum [total energy] change in last 3 cyles: 0.0005 eV / electron
 Maximum integral of absolute [dens]ity change: 0.0001 electrons / valence electron
 Maximum integral of absolute [eigenst]ate change: 4e-08 eV^2 / valence electron
 Maximum number of scf [iter]ations: 333
 (Square brackets indicate name in SCF output, whereas a 'c' in
 the SCF output indicates the quantity has converged.)

Symmetries present (total): 1

  ( 1  0  0)
  ( 0  1  0)
  ( 0  0  1)

36 k-points: 6 x 6 x 1 Monkhorst-Pack grid
18 k-points in the irreducible part of the Brillouin zone
       k-points in crystal coordinates                weights
   0:     0.08333333   -0.41666667    0.00000000          2/36
   1:     0.08333333   -0.25000000    0.00000000          2/36
   2:     0.08333333   -0.08333333    0.00000000          2/36
   3:     0.08333333    0.08333333    0.00000000          2/36
   4:     0.08333333    0.25000000    0.00000000          2/36
   5:     0.08333333    0.41666667    0.00000000          2/36
   6:     0.25000000   -0.41666667    0.00000000          2/36
   7:     0.25000000   -0.25000000    0.00000000          2/36
   8:     0.25000000   -0.08333333    0.00000000          2/36
   9:     0.25000000    0.08333333    0.00000000          2/36
          ...
  17:     0.41666667    0.41666667    0.00000000          2/36

Wave functions: Uniform real-space grid
  Kinetic energy operator: 6*3+1=19 point O(h^6) finite-difference Laplacian
  ScaLapack parameters: grid=1x1, blocksize=None
  Wavefunction extrapolation:
    Improved wavefunction reuse through dual PAW basis 

Occupation numbers: Fermi-Dirac:
  width: 0.0500  # eV
 

Eigensolver
   Davidson(niter=2) 

Densities:
  Coarse grid: 60*60*156 grid
  Fine grid: 120*120*312 grid
  Total Charge: 0.000000 

Density mixing:
  Method: separate
  Backend: pulay
  Linear mixing parameter: 0.05
  old densities: 5
  Damping of long wavelength oscillations: 50 

Hamiltonian:
  XC and Coulomb potentials evaluated on a 120*120*312 grid
  Using the RPBE Exchange-Correlation functional
  Interpolation: tri-quintic (5. degree polynomial)
  Poisson solver: FastPoissonSolver using
    Stencil: 6*3+1=19 point O(h^6) finite-difference Laplacian
    FFT axes: [0, 1]
    FST axes: [2]

Dipole correction along z-axis 

XC parameters: RPBE with 2 nearest neighbor stencil

Memory estimate:
  Process memory now: 125.67 MiB
  Calculator: 181.79 MiB
    Density: 21.61 MiB
      Arrays: 6.87 MiB
      Localized functions: 12.13 MiB
      Mixer: 2.61 MiB
    Hamiltonian: 5.45 MiB
      Arrays: 4.49 MiB
      XC: 0.00 MiB
      Poisson: 0.00 MiB
      vbar: 0.96 MiB
    Wavefunctions: 154.73 MiB
      Arrays psit_nG: 136.20 MiB
      Eigensolver: 17.87 MiB
      Projections: 0.05 MiB
      Projectors: 0.61 MiB

Total number of cores used: 32
Parallelization over k-points: 2
Domain decomposition: 2 x 2 x 4

Number of atoms: 37
Number of atomic orbitals: 148
Number of bands in calculation: 29
Number of valence electrons: 41
Bands to converge: occupied

... initialized

Initializing position-dependent things.

Density initialized from atomic densities
Creating initial wave functions:
  29 bands from LCAO basis set

       .-----------------------.  
      /|                       |  
     / |                       |  
    /  |                       |  
   /   |                       |  
  /    |                       |  
 *     |                       |  
 |     |                       |  
 |     |                       |  
 |     |                       |  
 |     |                       |  
 |     |                       |  
 |     |       Li              |  
 |     |                       |  
 |   Li|     Li      Li        |  
 |     |  Li      Li      Li   |  
 |     |   Li       Li    Li   |  
 |     |Li      LiLi  N Li     |  
 |     |                       |  
 |   LLi     LLi     LLi       |  
 |     |  Li      Li      Li   |  
 | Li  |   Li      Li          |  
 |     |Li      Li      Li     |  
 Li    | Li      Li            |  
 |    Li      Li      Li       |  
 |     |                       |  
 |     |                       |  
 |     |                       |  
 |     |                       |  
 |     |                       |  
 |     |                       |  
 |     .-----------------------.  
 |    /                       /   
 |   /                       /    
 |  /                       /     
 | /                       /      
 |/                       /       
 *-----------------------*        

Positions:
   0 Li     1.617037    1.617037   10.000000    ( 0.0000,  0.0000,  0.0000)
   1 Li     4.851111    1.617037   10.000000    ( 0.0000,  0.0000,  0.0000)
   2 Li     8.085185    1.617037   10.000000    ( 0.0000,  0.0000,  0.0000)
   3 Li     1.617037    4.851111   10.000000    ( 0.0000,  0.0000,  0.0000)
   4 Li     4.851111    4.851111   10.000000    ( 0.0000,  0.0000,  0.0000)
   5 Li     8.085185    4.851111   10.000000    ( 0.0000,  0.0000,  0.0000)
   6 Li     1.617037    8.085185   10.000000    ( 0.0000,  0.0000,  0.0000)
   7 Li     4.851111    8.085185   10.000000    ( 0.0000,  0.0000,  0.0000)
   8 Li     8.085185    8.085185   10.000000    ( 0.0000,  0.0000,  0.0000)
   9 Li     0.000000    0.000000   11.617037    ( 0.0000,  0.0000,  0.0000)
  10 Li     3.234074    0.000000   11.617037    ( 0.0000,  0.0000,  0.0000)
  11 Li     6.468148    0.000000   11.617037    ( 0.0000,  0.0000,  0.0000)
  12 Li     0.000000    3.234074   11.617037    ( 0.0000,  0.0000,  0.0000)
  13 Li     3.234074    3.234074   11.617037    ( 0.0000,  0.0000,  0.0000)
  14 Li     6.468148    3.234074   11.617037    ( 0.0000,  0.0000,  0.0000)
  15 Li     0.000000    6.468148   11.617037    ( 0.0000,  0.0000,  0.0000)
  16 Li     3.234074    6.468148   11.617037    ( 0.0000,  0.0000,  0.0000)
  17 Li     6.468148    6.468148   11.617037    ( 0.0000,  0.0000,  0.0000)
  18 Li     1.617288    1.617035   13.563541    ( 0.0000,  0.0000,  0.0000)
  19 Li     4.850860    1.617038   13.563540    ( 0.0000,  0.0000,  0.0000)
  20 Li     8.085185    1.617037   13.649321    ( 0.0000,  0.0000,  0.0000)
  21 Li     1.593682    4.827756   13.543706    ( 0.0000,  0.0000,  0.0000)
  22 Li     4.874466    4.827756   13.543703    ( 0.0000,  0.0000,  0.0000)
  23 Li     8.085184    4.851362   13.563540    ( 0.0000,  0.0000,  0.0000)
  24 Li     1.593682    8.108540   13.543702    ( 0.0000,  0.0000,  0.0000)
  25 Li     4.874466    8.108540   13.543706    ( 0.0000,  0.0000,  0.0000)
  26 Li     8.085187    8.084934   13.563541    ( 0.0000,  0.0000,  0.0000)
  27 Li    -0.273142    0.273142   15.717288    ( 0.0000,  0.0000,  0.0000)
  28 Li     3.234074   -0.050562   15.501445    ( 0.0000,  0.0000,  0.0000)
  29 Li     6.741291    0.273141   15.717289    ( 0.0000,  0.0000,  0.0000)
  30 Li    -0.273141    2.960931   15.717289    ( 0.0000,  0.0000,  0.0000)
  31 Li     3.234074    3.284637   15.501445    ( 0.0000,  0.0000,  0.0000)
  32 Li     6.741290    2.960932   15.717288    ( 0.0000,  0.0000,  0.0000)
  33 Li     0.050562    6.468148   15.501445    ( 0.0000,  0.0000,  0.0000)
  34 Li     3.234074    6.468148   15.460310    ( 0.0000,  0.0000,  0.0000)
  35 Li     6.417585    6.468148   15.501445    ( 0.0000,  0.0000,  0.0000)
  36 N      8.085187    1.617035   15.538685    ( 0.0000,  0.0000,  0.0000)

Unit cell:
           periodic     x           y           z      points  spacing
  1. axis:    yes    9.702222    0.000000    0.000000    60     0.1617
  2. axis:    yes    0.000000    9.702222    0.000000    60     0.1617
  3. axis:    no     0.000000    0.000000   24.851111   156     0.1593

  Lengths:   9.702222   9.702222  24.851111
  Angles:   90.000000  90.000000  90.000000

Effective grid spacing dv^(1/3) = 0.1609

     iter     time        total  log10-change:
                         energy  eigst   dens
iter:   1 14:52:27   -77.258471
iter:   2 14:52:53   -70.875548  +0.93  -0.46
iter:   3 14:53:21   -68.998170  +1.24  -0.57
iter:   4 14:53:47   -67.400795  +1.64  -0.65
iter:   5 14:54:18   -67.818657  +0.87  -0.90
iter:   6 14:54:50   -69.037814  +0.36  -0.93
iter:   7 14:55:18   -67.859904  +0.43  -0.85
iter:   8 14:55:45   -67.806855  +0.74  -1.18
iter:   9 14:56:11   -67.920643  +0.50  -1.41
iter:  10 14:56:38   -68.169933  +0.57  -1.40
iter:  11 14:57:05   -68.081042  +0.04  -1.25
iter:  12 14:58:02   -67.948287  -0.59  -1.38
iter:  13 14:58:28   -67.950152  -0.95  -1.57
iter:  14 14:58:54   -67.939088c -1.08  -1.61
iter:  15 14:59:21   -67.933404c -0.59  -1.69
iter:  16 14:59:48   -67.936382c -1.44  -1.83
iter:  17 15:00:14   -67.935861c -1.55  -1.87
iter:  18 15:00:42   -67.937179c -1.35  -1.96
iter:  19 15:01:10   -67.940366c -1.34  -2.18
iter:  20 15:01:37   -67.940477c -1.88  -2.19
iter:  21 15:02:05   -67.940756c -2.02  -2.25
iter:  22 15:02:35   -67.941286c -1.96  -2.29
iter:  23 15:03:08   -67.942210c -2.16  -2.35
iter:  24 15:03:39   -67.942610c -2.46  -2.50
iter:  25 15:04:06   -67.942826c -2.47  -2.56
iter:  26 15:04:35   -67.943107c -2.67  -2.75
iter:  27 15:05:07   -67.943295c -2.55  -2.76
iter:  28 15:05:34   -67.943539c -2.53  -2.81
iter:  29 15:06:02   -67.943653c -2.89  -3.07
iter:  30 15:06:30   -67.943749c -3.07  -3.15
iter:  31 15:07:02   -67.943892c -2.79  -3.19
iter:  32 15:07:32   -67.943978c -3.18  -3.35
iter:  33 15:08:00   -67.944044c -3.15  -3.47
iter:  34 15:08:51   -67.944109c -3.09  -3.57
iter:  35 15:09:19   -67.944172c -2.94  -3.61
iter:  36 15:10:12   -67.944213c -3.22  -3.62
iter:  37 15:10:43   -67.944261c -2.99  -3.59
iter:  38 15:11:12   -67.944293c -3.34  -3.46
iter:  39 15:11:40   -67.944321c -3.24  -3.50
iter:  40 15:12:42   -67.944345c -3.27  -3.52
iter:  41 15:13:28   -67.944372c -3.12  -3.49
iter:  42 15:13:56   -67.944401c -3.25  -3.42
iter:  43 15:14:24   -67.944430c -3.14  -3.50
iter:  44 15:14:51   -67.944450c -3.22  -3.65
iter:  45 15:15:18   -67.944474c -3.17  -3.66
iter:  46 15:15:43   -67.944493c -3.30  -3.74
iter:  47 15:16:13   -67.944514c -3.26  -3.77
iter:  48 15:16:41   -67.944530c -3.40  -3.84
iter:  49 15:17:15   -67.944543c -3.25  -3.81
iter:  50 15:18:02   -67.944555c -3.59  -3.70
iter:  51 15:18:50   -67.944572c -3.50  -3.79
iter:  52 15:19:36   -67.944584c -3.60  -3.81
iter:  53 15:20:20   -67.944597c -3.50  -3.75
iter:  54 15:21:03   -67.944608c -3.68  -3.71
iter:  55 15:21:40   -67.944622c -3.74  -3.62
iter:  56 15:22:23   -67.944639c -3.50  -3.69
iter:  57 15:23:10   -67.944658c -3.61  -3.73
iter:  58 15:23:54   -67.944665c -3.66  -3.79
iter:  59 15:24:35   -67.944691c -3.56  -3.62
iter:  60 15:25:23   -67.944707c -3.68  -3.78
iter:  61 15:26:10   -67.944716c -3.84  -3.89
iter:  62 15:26:54   -67.944731c -3.69  -4.08c
iter:  63 15:28:13   -67.944743c -3.76  -4.33c
iter:  64 15:29:37   -67.944755c -3.72  -4.33c
iter:  65 15:30:51   -67.944764c -3.74  -4.32c
iter:  66 15:31:49   -67.944775c -3.80  -4.04c
iter:  67 15:33:05   -67.944785c -3.63  -4.07c
iter:  68 15:35:54   -67.944793c -3.76  -4.11c
iter:  69 15:36:33   -67.944806c -3.80  -4.19c
iter:  70 15:39:07   -67.944813c -4.12  -4.48c
iter:  71 15:41:12   -67.944818c -4.18  -4.55c
iter:  72 15:42:57   -67.944823c -4.09  -4.76c
iter:  73 15:44:42   -67.944828c -4.06  -4.91c
iter:  74 15:46:35   -67.944832c -4.12  -4.87c
iter:  75 15:49:50   -67.944838c -3.90  -4.65c
iter:  76 15:52:05   -67.944842c -4.02  -4.68c
iter:  77 15:54:45   -67.944845c -4.06  -4.62c
iter:  78 15:56:33   -67.944848c -4.30  -4.58c
iter:  79 15:58:24   -67.944851c -4.33  -4.45c
iter:  80 16:01:12   -67.944853c -4.48  -4.32c
iter:  81 16:03:46   -67.944856c -4.29  -4.30c
iter:  82 16:06:29   -67.944858c -4.45  -4.26c
iter:  83 16:08:43   -67.944859c -4.54  -4.27c
iter:  84 16:11:08   -67.944861c -4.46  -4.22c
iter:  85 16:13:15   -67.944865c -4.76  -4.18c
iter:  86 16:15:45   -67.944865c -4.87  -4.38c
iter:  87 16:18:18   -67.944867c -4.63  -4.27c
iter:  88 16:20:30   -67.944870c -4.72  -4.31c
iter:  89 16:22:55   -67.944870c -5.03  -4.45c
iter:  90 16:25:17   -67.944872c -4.76  -4.41c
iter:  91 16:27:31   -67.944873c -4.49  -4.53c
iter:  92 16:29:44   -67.944874c -4.80  -4.57c
iter:  93 16:31:55   -67.944875c -4.81  -4.56c
iter:  94 16:35:12   -67.944876c -5.01  -4.54c
iter:  95 16:39:20   -67.944876c -5.11  -4.54c
iter:  96 16:43:20   -67.944877c -5.20  -4.51c
iter:  97 16:47:11   -67.944877c -5.10  -4.56c
iter:  98 16:50:58   -67.944878c -5.15  -4.46c
iter:  99 16:54:59   -67.944878c -5.20  -4.52c
iter: 100 16:57:58   -67.944879c -5.16  -4.50c
iter: 101 17:01:08   -67.944879c -5.28  -4.60c
iter: 102 17:04:08   -67.944879c -5.55  -4.66c
iter: 103 17:07:34   -67.944879c -5.61  -4.79c
iter: 104 17:11:31   -67.944879c -5.10  -4.82c
iter: 105 17:15:13   -67.944879c -5.72  -5.06c
iter: 106 17:18:42   -67.944880c -5.54  -5.11c
iter: 107 17:22:22   -67.944880c -5.45  -5.12c
iter: 108 17:25:53   -67.944880c -5.41  -5.18c
iter: 109 17:29:24   -67.944880c -5.44  -5.36c
iter: 110 17:33:27   -67.944880c -5.63  -5.41c
iter: 111 17:36:59   -67.944880c -5.78  -5.45c
iter: 112 17:39:17   -67.944880c -5.43  -5.55c
iter: 113 17:41:36   -67.944880c -6.00  -5.59c
iter: 114 17:43:55   -67.944880c -5.64  -5.72c
iter: 115 17:46:16   -67.944880c -5.74  -5.80c
iter: 116 17:48:48   -67.944880c -5.91  -5.80c
iter: 117 17:51:19   -67.944880c -6.10  -5.75c
iter: 118 17:54:12   -67.944880c -6.02  -5.70c
iter: 119 17:56:35   -67.944880c -6.11  -5.70c
iter: 120 17:58:51   -67.944880c -6.13  -5.66c
iter: 121 18:01:10   -67.944880c -6.26  -5.63c
iter: 122 18:03:39   -67.944880c -6.23  -5.61c
iter: 123 18:06:40   -67.944880c -6.32  -5.57c
iter: 124 18:09:30   -67.944880c -6.22  -5.58c
iter: 125 18:12:10   -67.944880c -6.49  -5.58c
iter: 126 18:15:14   -67.944880c -6.50  -5.52c
iter: 127 18:18:20   -67.944880c -6.38  -5.54c
iter: 128 18:21:18   -67.944880c -6.17  -5.64c
iter: 129 18:24:13   -67.944880c -6.70  -5.65c
iter: 130 18:27:08   -67.944880c -6.93  -5.91c
iter: 131 18:30:07   -67.944880c -6.88  -5.93c
iter: 132 18:33:08   -67.944880c -6.71  -5.99c
iter: 133 18:35:52   -67.944879c -6.65  -6.09c
iter: 134 18:38:36   -67.944879c -6.73  -6.20c
iter: 135 18:40:18   -67.944879c -7.01  -6.28c
iter: 136 18:41:48   -67.944879c -6.98  -6.36c
iter: 137 18:43:24   -67.944879c -6.93  -6.43c
iter: 138 18:44:52   -67.944879c -7.03  -6.55c
iter: 139 18:46:35   -67.944879c -7.14  -6.79c
iter: 140 18:48:16   -67.944879c -7.16  -6.80c
iter: 141 18:49:48   -67.944879c -7.17  -6.75c
iter: 142 18:51:26   -67.944879c -7.06  -6.64c
iter: 143 18:53:03   -67.944879c -7.23  -6.67c
iter: 144 18:54:31   -67.944879c -7.24  -6.74c
iter: 145 18:56:11   -67.944879c -7.22  -6.75c
iter: 146 18:58:15   -67.944879c -7.30  -6.80c
iter: 147 19:02:01   -67.944879c -7.44c -6.77c

Converged after 147 iterations.

Dipole moment: (1.775018, -5.963759, 0.058357) |e|*Ang

Energy contributions relative to reference atoms: (reference = -8815.035974)

Kinetic:        +71.710801
Potential:      -61.645541
External:        +0.000000
XC:             -77.995623
Entropy (-ST):   -0.137992
Local:           +0.054480
--------------------------
Free energy:    -68.013875
Extrapolated:   -67.944879

Dipole-layer corrected work functions: 3.196280, 3.084099 eV

Showing only first 2 kpts
 Kpt  Band  Eigenvalues  Occupancy
  0    18     -3.43723    1.99475
  0    19     -3.31199    1.93762
  0    20     -3.12001    0.80088
  0    21     -3.00380    0.12269

  1    18     -3.38052    1.98378
  1    19     -3.29030    1.90535
  1    20     -3.14912    1.08910
  1    21     -3.05420    0.30378


Fermi level: -3.14019

No gap

Forces in eV/Ang:
  0 Li    0.00246   -0.00000   -0.35671
  1 Li   -0.00246    0.00000   -0.35671
  2 Li   -0.00000    0.00000   -0.33599
  3 Li   -0.00080   -0.00080   -0.35923
  4 Li    0.00080   -0.00080   -0.35923
  5 Li   -0.00000    0.00246   -0.35671
  6 Li   -0.00080    0.00080   -0.35923
  7 Li    0.00080    0.00080   -0.35923
  8 Li    0.00000   -0.00246   -0.35671
  9 Li   -0.00724    0.00724    0.25623
 10 Li    0.00000    0.01806    0.32244
 11 Li    0.00724    0.00724    0.25623
 12 Li   -0.00724   -0.00724    0.25623
 13 Li   -0.00000   -0.01806    0.32244
 14 Li    0.00724   -0.00724    0.25623
 15 Li   -0.01806   -0.00000    0.32244
 16 Li    0.00000   -0.00000    0.37002
 17 Li    0.01806    0.00000    0.32244
 18 Li   -0.00867    0.00000    0.01423
 19 Li    0.00867   -0.00000    0.01423
 20 Li   -0.00000    0.00000   -0.05846
 21 Li    0.00467    0.00467    0.01579
 22 Li   -0.00467    0.00467    0.01580
 23 Li    0.00000   -0.00867    0.01423
 24 Li    0.00467   -0.00467    0.01580
 25 Li   -0.00467   -0.00467    0.01579
 26 Li   -0.00000    0.00867    0.01423
 27 Li    0.08248   -0.08248    0.00031
 28 Li    0.00000   -0.00572    0.07125
 29 Li   -0.08247   -0.08247    0.00031
 30 Li    0.08247    0.08247    0.00031
 31 Li    0.00000    0.00572    0.07125
 32 Li   -0.08246    0.08246    0.00031
 33 Li    0.00572   -0.00000    0.07125
 34 Li    0.00000   -0.00000    0.05615
 35 Li   -0.00572   -0.00000    0.07125
 36 N    -0.00001    0.00001    0.08781

System changes: positions 

Initializing position-dependent things.

Density initialized from wave functions
       .-----------------------.  
      /|                       |  
     / |                       |  
    /  |                       |  
   /   |                       |  
  /    |                       |  
 *     |                       |  
 |     |                       |  
 |     |                       |  
 |     |                       |  
 |     |                       |  
 |     |                       |  
 |     |       Li              |  
 |     |                       |  
 |   Li|     Li      Li        |  
 |     |  Li      Li      Li   |  
 |     |   Li       Li    Li   |  
 |     |Li      LiLi  N Li     |  
 |     |                       |  
 |   LLi     LLi     LLi       |  
 |     |  Li      Li      Li   |  
 | Li  |   Li      Li          |  
 |     |Li      Li      Li     |  
 Li    | Li      Li            |  
 |    Li      Li      Li       |  
 |     |                       |  
 |     |                       |  
 |     |                       |  
 |     |                       |  
 |     |                       |  
 |     |                       |  
 |     .-----------------------.  
 |    /                       /   
 |   /                       /    
 |  /                       /     
 | /                       /      
 |/                       /       
 *-----------------------*        

Positions:
   0 Li     1.617037    1.617037   10.000000    ( 0.0000,  0.0000,  0.0000)
   1 Li     4.851111    1.617037   10.000000    ( 0.0000,  0.0000,  0.0000)
   2 Li     8.085185    1.617037   10.000000    ( 0.0000,  0.0000,  0.0000)
   3 Li     1.617037    4.851111   10.000000    ( 0.0000,  0.0000,  0.0000)
   4 Li     4.851111    4.851111   10.000000    ( 0.0000,  0.0000,  0.0000)
   5 Li     8.085185    4.851111   10.000000    ( 0.0000,  0.0000,  0.0000)
   6 Li     1.617037    8.085185   10.000000    ( 0.0000,  0.0000,  0.0000)
   7 Li     4.851111    8.085185   10.000000    ( 0.0000,  0.0000,  0.0000)
   8 Li     8.085185    8.085185   10.000000    ( 0.0000,  0.0000,  0.0000)
   9 Li     0.000000    0.000000   11.617037    ( 0.0000,  0.0000,  0.0000)
  10 Li     3.234074    0.000000   11.617037    ( 0.0000,  0.0000,  0.0000)
  11 Li     6.468148    0.000000   11.617037    ( 0.0000,  0.0000,  0.0000)
  12 Li     0.000000    3.234074   11.617037    ( 0.0000,  0.0000,  0.0000)
  13 Li     3.234074    3.234074   11.617037    ( 0.0000,  0.0000,  0.0000)
  14 Li     6.468148    3.234074   11.617037    ( 0.0000,  0.0000,  0.0000)
  15 Li     0.000000    6.468148   11.617037    ( 0.0000,  0.0000,  0.0000)
  16 Li     3.234074    6.468148   11.617037    ( 0.0000,  0.0000,  0.0000)
  17 Li     6.468148    6.468148   11.617037    ( 0.0000,  0.0000,  0.0000)
  18 Li     1.617288    1.617035   13.563541    ( 0.0000,  0.0000,  0.0000)
  19 Li     4.850860    1.617038   13.563540    ( 0.0000,  0.0000,  0.0000)
  20 Li     8.085185    1.617037   13.649321    ( 0.0000,  0.0000,  0.0000)
  21 Li     1.593682    4.827756   13.543706    ( 0.0000,  0.0000,  0.0000)
  22 Li     4.874466    4.827756   13.543703    ( 0.0000,  0.0000,  0.0000)
  23 Li     8.085184    4.851362   13.563540    ( 0.0000,  0.0000,  0.0000)
  24 Li     1.593682    8.108540   13.543702    ( 0.0000,  0.0000,  0.0000)
  25 Li     4.874466    8.108540   13.543706    ( 0.0000,  0.0000,  0.0000)
  26 Li     8.085187    8.084934   13.563541    ( 0.0000,  0.0000,  0.0000)
  27 Li    -0.273142    0.273142   15.717288    ( 0.0000,  0.0000,  0.0000)
  28 Li     3.234074   -0.050562   15.501445    ( 0.0000,  0.0000,  0.0000)
  29 Li     6.741291    0.273141   15.717289    ( 0.0000,  0.0000,  0.0000)
  30 Li    -0.273141    2.960931   15.717289    ( 0.0000,  0.0000,  0.0000)
  31 Li     3.234074    3.284637   15.501445    ( 0.0000,  0.0000,  0.0000)
  32 Li     6.741290    2.960932   15.717288    ( 0.0000,  0.0000,  0.0000)
  33 Li     0.050562    6.468148   15.501445    ( 0.0000,  0.0000,  0.0000)
  34 Li     3.234074    6.468148   15.460310    ( 0.0000,  0.0000,  0.0000)
  35 Li     6.417585    6.468148   15.501445    ( 0.0000,  0.0000,  0.0000)
  36 N      8.075187    1.617035   15.538685    ( 0.0000,  0.0000,  0.0000)

Unit cell:
           periodic     x           y           z      points  spacing
  1. axis:    yes    9.702222    0.000000    0.000000    60     0.1617
  2. axis:    yes    0.000000    9.702222    0.000000    60     0.1617
  3. axis:    no     0.000000    0.000000   24.851111   156     0.1593

  Lengths:   9.702222   9.702222  24.851111
  Angles:   90.000000  90.000000  90.000000

Effective grid spacing dv^(1/3) = 0.1609

     iter     time        total  log10-change:
                         energy  eigst   dens
iter:   1 19:05:50   -67.944902  -2.71
iter:   2 19:11:15   -67.944794  -3.47  -2.75
iter:   3 19:14:38   -67.944570c -3.09  -2.87
iter:   4 19:18:28   -67.944537c -3.77  -2.98
iter:   5 19:22:38   -67.944537c -3.33  -3.34
iter:   6 19:26:54   -67.944553c -3.38  -3.19
iter:   7 19:31:18   -67.944554c -4.00  -3.29
iter:   8 19:35:16   -67.944527c -4.46  -3.18
iter:   9 19:39:27   -67.944522c -4.24  -3.64
iter:  10 19:43:33   -67.944523c -4.49  -3.71
iter:  11 19:46:10   -67.944521c -5.39  -3.88
iter:  12 19:49:44   -67.944521c -5.78  -4.11c
iter:  13 19:53:48   -67.944521c -5.87  -4.12c
iter:  14 19:58:10   -67.944521c -5.61  -4.18c
iter:  15 20:02:28   -67.944521c -6.08  -4.51c
iter:  16 20:06:41   -67.944521c -6.43  -4.64c
iter:  17 20:10:47   -67.944521c -6.26  -4.66c
iter:  18 20:14:14   -67.944521c -6.60  -4.74c
iter:  19 20:17:16   -67.944521c -6.92  -5.01c
iter:  20 20:20:18   -67.944521c -6.84  -5.06c
iter:  21 20:23:32   -67.944521c -6.94  -5.27c
iter:  22 20:27:10   -67.944521c -7.25  -5.30c
iter:  23 20:30:56   -67.944521c -7.21  -5.42c
iter:  24 20:35:44   -67.944521c -7.38  -5.52c
iter:  25 20:39:48   -67.944521c -7.46c -5.52c

Converged after 25 iterations.

Dipole moment: (1.788120, -5.963765, 0.058359) |e|*Ang

Energy contributions relative to reference atoms: (reference = -8815.035974)

Kinetic:        +71.713325
Potential:      -61.647576
External:        +0.000000
XC:             -77.995936
Entropy (-ST):   -0.137992
Local:           +0.054661
--------------------------
Free energy:    -68.013517
Extrapolated:   -67.944521

Dipole-layer corrected work functions: 3.196280, 3.084093 eV

Showing only first 2 kpts
 Kpt  Band  Eigenvalues  Occupancy
  0    18     -3.43722    1.99475
  0    19     -3.31198    1.93761
  0    20     -3.12001    0.80088
  0    21     -3.00379    0.12269

  1    18     -3.38052    1.98378
  1    19     -3.29030    1.90535
  1    20     -3.14912    1.08913
  1    21     -3.05419    0.30375


Fermi level: -3.14019

No gap

Forces in eV/Ang:
  0 Li    0.00229   -0.00000   -0.35704
  1 Li   -0.00263    0.00000   -0.35640
  2 Li    0.00025    0.00000   -0.33599
  3 Li   -0.00082   -0.00095   -0.35926
  4 Li    0.00079   -0.00065   -0.35920
  5 Li   -0.00002    0.00246   -0.35671
  6 Li   -0.00082    0.00095   -0.35926
  7 Li    0.00079    0.00065   -0.35920
  8 Li   -0.00002   -0.00246   -0.35671
  9 Li   -0.00728    0.00764    0.25648
 10 Li    0.00042    0.01806    0.32245
 11 Li    0.00721    0.00685    0.25599
 12 Li   -0.00728   -0.00764    0.25648
 13 Li    0.00042   -0.01806    0.32245
 14 Li    0.00721   -0.00685    0.25599
 15 Li   -0.01784   -0.00000    0.32256
 16 Li   -0.00011   -0.00000    0.37002
 17 Li    0.01827    0.00000    0.32233
 18 Li   -0.00616    0.00000    0.01343
 19 Li    0.01121   -0.00000    0.01505
 20 Li   -0.00196    0.00000   -0.05832
 21 Li    0.00441    0.00403    0.01623
 22 Li   -0.00493    0.00530    0.01536
 23 Li    0.00024   -0.00867    0.01423
 24 Li    0.00441   -0.00403    0.01623
 25 Li   -0.00492   -0.00530    0.01535
 26 Li    0.00024    0.00867    0.01423
 27 Li    0.05858   -0.06337   -0.00313
 28 Li   -0.00218   -0.00572    0.07125
 29 Li   -0.10702   -0.10254    0.00386
 30 Li    0.05856    0.06336   -0.00314
 31 Li   -0.00218    0.00572    0.07125
 32 Li   -0.10701    0.10253    0.00386
 33 Li    0.00567   -0.00000    0.07125
 34 Li    0.00010   -0.00000    0.05615
 35 Li   -0.00576   -0.00000    0.07126
 36 N     0.08837    0.00002    0.06345

System changes: positions 

Initializing position-dependent things.

Density initialized from wave functions
       .-----------------------.  
      /|                       |  
     / |                       |  
    /  |                       |  
   /   |                       |  
  /    |                       |  
 *     |                       |  
 |     |                       |  
 |     |                       |  
 |     |                       |  
 |     |                       |  
 |     |                       |  
 |     |       Li              |  
 |     |                       |  
 |   Li|     Li      Li        |  
 |     |  Li      Li      Li   |  
 |     |   Li       Li    Li   |  
 |     |Li      LiLi  N Li     |  
 |     |                       |  
 |   LLi     LLi     LLi       |  
 |     |  Li      Li      Li   |  
 | Li  |   Li      Li          |  
 |     |Li      Li      Li     |  
 Li    | Li      Li            |  
 |    Li      Li      Li       |  
 |     |                       |  
 |     |                       |  
 |     |                       |  
 |     |                       |  
 |     |                       |  
 |     |                       |  
 |     .-----------------------.  
 |    /                       /   
 |   /                       /    
 |  /                       /     
 | /                       /      
 |/                       /       
 *-----------------------*        

Positions:
   0 Li     1.617037    1.617037   10.000000    ( 0.0000,  0.0000,  0.0000)
   1 Li     4.851111    1.617037   10.000000    ( 0.0000,  0.0000,  0.0000)
   2 Li     8.085185    1.617037   10.000000    ( 0.0000,  0.0000,  0.0000)
   3 Li     1.617037    4.851111   10.000000    ( 0.0000,  0.0000,  0.0000)
   4 Li     4.851111    4.851111   10.000000    ( 0.0000,  0.0000,  0.0000)
   5 Li     8.085185    4.851111   10.000000    ( 0.0000,  0.0000,  0.0000)
   6 Li     1.617037    8.085185   10.000000    ( 0.0000,  0.0000,  0.0000)
   7 Li     4.851111    8.085185   10.000000    ( 0.0000,  0.0000,  0.0000)
   8 Li     8.085185    8.085185   10.000000    ( 0.0000,  0.0000,  0.0000)
   9 Li     0.000000    0.000000   11.617037    ( 0.0000,  0.0000,  0.0000)
  10 Li     3.234074    0.000000   11.617037    ( 0.0000,  0.0000,  0.0000)
  11 Li     6.468148    0.000000   11.617037    ( 0.0000,  0.0000,  0.0000)
  12 Li     0.000000    3.234074   11.617037    ( 0.0000,  0.0000,  0.0000)
  13 Li     3.234074    3.234074   11.617037    ( 0.0000,  0.0000,  0.0000)
  14 Li     6.468148    3.234074   11.617037    ( 0.0000,  0.0000,  0.0000)
  15 Li     0.000000    6.468148   11.617037    ( 0.0000,  0.0000,  0.0000)
  16 Li     3.234074    6.468148   11.617037    ( 0.0000,  0.0000,  0.0000)
  17 Li     6.468148    6.468148   11.617037    ( 0.0000,  0.0000,  0.0000)
  18 Li     1.617288    1.617035   13.563541    ( 0.0000,  0.0000,  0.0000)
  19 Li     4.850860    1.617038   13.563540    ( 0.0000,  0.0000,  0.0000)
  20 Li     8.085185    1.617037   13.649321    ( 0.0000,  0.0000,  0.0000)
  21 Li     1.593682    4.827756   13.543706    ( 0.0000,  0.0000,  0.0000)
  22 Li     4.874466    4.827756   13.543703    ( 0.0000,  0.0000,  0.0000)
  23 Li     8.085184    4.851362   13.563540    ( 0.0000,  0.0000,  0.0000)
  24 Li     1.593682    8.108540   13.543702    ( 0.0000,  0.0000,  0.0000)
  25 Li     4.874466    8.108540   13.543706    ( 0.0000,  0.0000,  0.0000)
  26 Li     8.085187    8.084934   13.563541    ( 0.0000,  0.0000,  0.0000)
  27 Li    -0.273142    0.273142   15.717288    ( 0.0000,  0.0000,  0.0000)
  28 Li     3.234074   -0.050562   15.501445    ( 0.0000,  0.0000,  0.0000)
  29 Li     6.741291    0.273141   15.717289    ( 0.0000,  0.0000,  0.0000)
  30 Li    -0.273141    2.960931   15.717289    ( 0.0000,  0.0000,  0.0000)
  31 Li     3.234074    3.284637   15.501445    ( 0.0000,  0.0000,  0.0000)
  32 Li     6.741290    2.960932   15.717288    ( 0.0000,  0.0000,  0.0000)
  33 Li     0.050562    6.468148   15.501445    ( 0.0000,  0.0000,  0.0000)
  34 Li     3.234074    6.468148   15.460310    ( 0.0000,  0.0000,  0.0000)
  35 Li     6.417585    6.468148   15.501445    ( 0.0000,  0.0000,  0.0000)
  36 N      8.095187    1.617035   15.538685    ( 0.0000,  0.0000,  0.0000)

Unit cell:
           periodic     x           y           z      points  spacing
  1. axis:    yes    9.702222    0.000000    0.000000    60     0.1617
  2. axis:    yes    0.000000    9.702222    0.000000    60     0.1617
  3. axis:    no     0.000000    0.000000   24.851111   156     0.1593

  Lengths:   9.702222   9.702222  24.851111
  Angles:   90.000000  90.000000  90.000000

Effective grid spacing dv^(1/3) = 0.1609

     iter     time        total  log10-change:
                         energy  eigst   dens
iter:   1 20:44:21   -67.946048  -2.11
iter:   2 20:47:56   -67.945610  -2.87  -2.45
iter:   3 20:51:51   -67.944705c -2.43  -2.57
iter:   4 20:54:54   -67.944577c -3.15  -2.68
iter:   5 20:59:33   -67.944578c -2.72  -3.04
iter:   6 21:03:47   -67.944603c -2.83  -2.90
iter:   7 21:08:05   -67.944630c -3.35  -3.06
iter:   8 21:12:36   -67.944533c -3.84  -2.90
iter:   9 21:15:58   -67.944518c -3.75  -3.42
iter:  10 21:18:41   -67.944525c -4.01  -3.53
iter:  11 21:22:59   -67.944521c -4.77  -3.60
iter:  12 21:27:28   -67.944521c -5.10  -3.81
iter:  13 21:31:41   -67.944521c -5.05  -3.85
iter:  14 21:34:53   -67.944521c -4.95  -3.87
iter:  15 21:38:31   -67.944521c -5.60  -4.15c
iter:  16 21:42:06   -67.944521c -5.62  -4.21c
iter:  17 21:46:35   -67.944521c -5.53  -4.26c
iter:  18 21:50:31   -67.944521c -5.93  -4.37c
iter:  19 21:54:18   -67.944521c -6.30  -4.58c
iter:  20 21:58:29   -67.944521c -6.30  -4.65c
iter:  21 22:02:10   -67.944521c -6.37  -4.75c
iter:  22 22:07:18   -67.944521c -6.59  -4.93c
iter:  23 22:11:50   -67.944521c -6.57  -5.01c
iter:  24 22:15:55   -67.944521c -6.82  -5.13c
iter:  25 22:19:48   -67.944521c -6.89  -5.31c
iter:  26 22:23:47   -67.944521c -6.99  -5.28c
iter:  27 22:27:57   -67.944521c -7.02  -5.30c
iter:  28 22:31:49   -67.944521c -7.16  -5.38c
iter:  29 22:35:40   -67.944521c -7.24  -5.47c
iter:  30 22:39:56   -67.944521c -7.35  -5.58c
iter:  31 22:43:48   -67.944521c -7.51c -5.64c

Converged after 31 iterations.

Dipole moment: (1.762216, -5.963766, 0.058358) |e|*Ang

Energy contributions relative to reference atoms: (reference = -8815.035974)

Kinetic:        +71.713297
Potential:      -61.647558
External:        +0.000000
XC:             -77.995925
Entropy (-ST):   -0.137992
Local:           +0.054662
--------------------------
Free energy:    -68.013517
Extrapolated:   -67.944521

Dipole-layer corrected work functions: 3.196279, 3.084095 eV

Showing only first 2 kpts
 Kpt  Band  Eigenvalues  Occupancy
  0    18     -3.43723    1.99475
  0    19     -3.31198    1.93761
  0    20     -3.12001    0.80088
  0    21     -3.00379    0.12269

  1    18     -3.38052    1.98378
  1    19     -3.29030    1.90535
  1    20     -3.14912    1.08913
  1    21     -3.05419    0.30375


Fermi level: -3.14019

No gap

Forces in eV/Ang:
  0 Li    0.00261   -0.00000   -0.35640
  1 Li   -0.00230    0.00000   -0.35703
  2 Li   -0.00024    0.00000   -0.33599
  3 Li   -0.00079   -0.00066   -0.35921
  4 Li    0.00082   -0.00095   -0.35926
  5 Li    0.00002    0.00245   -0.35672
  6 Li   -0.00079    0.00066   -0.35921
  7 Li    0.00082    0.00095   -0.35926
  8 Li    0.00002   -0.00245   -0.35672
  9 Li   -0.00721    0.00684    0.25597
 10 Li   -0.00042    0.01806    0.32245
 11 Li    0.00728    0.00764    0.25649
 12 Li   -0.00721   -0.00684    0.25598
 13 Li   -0.00042   -0.01806    0.32245
 14 Li    0.00728   -0.00764    0.25649
 15 Li   -0.01827   -0.00000    0.32234
 16 Li    0.00010   -0.00000    0.37002
 17 Li    0.01784    0.00000    0.32255
 18 Li   -0.01119    0.00000    0.01505
 19 Li    0.00618   -0.00000    0.01343
 20 Li    0.00194    0.00000   -0.05833
 21 Li    0.00492    0.00531    0.01535
 22 Li   -0.00442    0.00402    0.01624
 23 Li   -0.00023   -0.00867    0.01423
 24 Li    0.00492   -0.00531    0.01536
 25 Li   -0.00442   -0.00402    0.01623
 26 Li   -0.00023    0.00867    0.01423
 27 Li    0.10704   -0.10255    0.00386
 28 Li    0.00218   -0.00572    0.07125
 29 Li   -0.05856   -0.06337   -0.00313
 30 Li    0.10703    0.10254    0.00386
 31 Li    0.00218    0.00572    0.07125
 32 Li   -0.05855    0.06336   -0.00313
 33 Li    0.00576   -0.00000    0.07125
 34 Li   -0.00010   -0.00000    0.05616
 35 Li   -0.00567   -0.00000    0.07125
 36 N    -0.08817    0.00002    0.06344

System changes: positions 

Initializing position-dependent things.

Density initialized from wave functions
       .-----------------------.  
      /|                       |  
     / |                       |  
    /  |                       |  
   /   |                       |  
  /    |                       |  
 *     |                       |  
 |     |                       |  
 |     |                       |  
 |     |                       |  
 |     |                       |  
 |     |                       |  
 |     |       Li              |  
 |     |                       |  
 |   Li|     Li      Li        |  
 |     |  Li      Li      Li   |  
 |     |   Li       Li    Li   |  
 |     |Li      LiLi  N Li     |  
 |     |                       |  
 |   LLi     LLi     LLi       |  
 |     |  Li      Li      Li   |  
 | Li  |   Li      Li          |  
 |     |Li      Li      Li     |  
 Li    | Li      Li            |  
 |    Li      Li      Li       |  
 |     |                       |  
 |     |                       |  
 |     |                       |  
 |     |                       |  
 |     |                       |  
 |     |                       |  
 |     .-----------------------.  
 |    /                       /   
 |   /                       /    
 |  /                       /     
 | /                       /      
 |/                       /       
 *-----------------------*        

Positions:
   0 Li     1.617037    1.617037   10.000000    ( 0.0000,  0.0000,  0.0000)
   1 Li     4.851111    1.617037   10.000000    ( 0.0000,  0.0000,  0.0000)
   2 Li     8.085185    1.617037   10.000000    ( 0.0000,  0.0000,  0.0000)
   3 Li     1.617037    4.851111   10.000000    ( 0.0000,  0.0000,  0.0000)
   4 Li     4.851111    4.851111   10.000000    ( 0.0000,  0.0000,  0.0000)
   5 Li     8.085185    4.851111   10.000000    ( 0.0000,  0.0000,  0.0000)
   6 Li     1.617037    8.085185   10.000000    ( 0.0000,  0.0000,  0.0000)
   7 Li     4.851111    8.085185   10.000000    ( 0.0000,  0.0000,  0.0000)
   8 Li     8.085185    8.085185   10.000000    ( 0.0000,  0.0000,  0.0000)
   9 Li     0.000000    0.000000   11.617037    ( 0.0000,  0.0000,  0.0000)
  10 Li     3.234074    0.000000   11.617037    ( 0.0000,  0.0000,  0.0000)
  11 Li     6.468148    0.000000   11.617037    ( 0.0000,  0.0000,  0.0000)
  12 Li     0.000000    3.234074   11.617037    ( 0.0000,  0.0000,  0.0000)
  13 Li     3.234074    3.234074   11.617037    ( 0.0000,  0.0000,  0.0000)
  14 Li     6.468148    3.234074   11.617037    ( 0.0000,  0.0000,  0.0000)
  15 Li     0.000000    6.468148   11.617037    ( 0.0000,  0.0000,  0.0000)
  16 Li     3.234074    6.468148   11.617037    ( 0.0000,  0.0000,  0.0000)
  17 Li     6.468148    6.468148   11.617037    ( 0.0000,  0.0000,  0.0000)
  18 Li     1.617288    1.617035   13.563541    ( 0.0000,  0.0000,  0.0000)
  19 Li     4.850860    1.617038   13.563540    ( 0.0000,  0.0000,  0.0000)
  20 Li     8.085185    1.617037   13.649321    ( 0.0000,  0.0000,  0.0000)
  21 Li     1.593682    4.827756   13.543706    ( 0.0000,  0.0000,  0.0000)
  22 Li     4.874466    4.827756   13.543703    ( 0.0000,  0.0000,  0.0000)
  23 Li     8.085184    4.851362   13.563540    ( 0.0000,  0.0000,  0.0000)
  24 Li     1.593682    8.108540   13.543702    ( 0.0000,  0.0000,  0.0000)
  25 Li     4.874466    8.108540   13.543706    ( 0.0000,  0.0000,  0.0000)
  26 Li     8.085187    8.084934   13.563541    ( 0.0000,  0.0000,  0.0000)
  27 Li    -0.273142    0.273142   15.717288    ( 0.0000,  0.0000,  0.0000)
  28 Li     3.234074   -0.050562   15.501445    ( 0.0000,  0.0000,  0.0000)
  29 Li     6.741291    0.273141   15.717289    ( 0.0000,  0.0000,  0.0000)
  30 Li    -0.273141    2.960931   15.717289    ( 0.0000,  0.0000,  0.0000)
  31 Li     3.234074    3.284637   15.501445    ( 0.0000,  0.0000,  0.0000)
  32 Li     6.741290    2.960932   15.717288    ( 0.0000,  0.0000,  0.0000)
  33 Li     0.050562    6.468148   15.501445    ( 0.0000,  0.0000,  0.0000)
  34 Li     3.234074    6.468148   15.460310    ( 0.0000,  0.0000,  0.0000)
  35 Li     6.417585    6.468148   15.501445    ( 0.0000,  0.0000,  0.0000)
  36 N      8.085187    1.607035   15.538685    ( 0.0000,  0.0000,  0.0000)

Unit cell:
           periodic     x           y           z      points  spacing
  1. axis:    yes    9.702222    0.000000    0.000000    60     0.1617
  2. axis:    yes    0.000000    9.702222    0.000000    60     0.1617
  3. axis:    no     0.000000    0.000000   24.851111   156     0.1593

  Lengths:   9.702222   9.702222  24.851111
  Angles:   90.000000  90.000000  90.000000

Effective grid spacing dv^(1/3) = 0.1609

     iter     time        total  log10-change:
                         energy  eigst   dens
iter:   1 22:48:03   -67.945313  -2.42
iter:   2 22:51:37   -67.945091  -3.22  -2.60
iter:   3 22:55:53   -67.944631c -2.77  -2.71
iter:   4 22:59:23   -67.944559c -3.53  -2.88
iter:   5 23:03:16   -67.944558c -3.00  -3.17
iter:   6 23:07:11   -67.944572c -3.20  -3.08
iter:   7 23:10:41   -67.944567c -3.74  -3.17
iter:   8 23:14:25   -67.944529c -4.36  -3.10
iter:   9 23:18:40   -67.944527c -4.14  -3.48
iter:  10 23:22:26   -67.944524c -4.34  -3.52
iter:  11 23:26:54   -67.944521c -5.14  -3.70
iter:  12 23:31:00   -67.944521c -5.53  -3.98
iter:  13 23:35:12   -67.944522c -5.52  -4.06c
iter:  14 23:40:10   -67.944521c -5.68  -3.97
iter:  15 23:44:44   -67.944521c -5.78  -4.10c
iter:  16 23:48:47   -67.944521c -5.88  -4.24c
iter:  17 23:52:24   -67.944521c -6.11  -4.53c
iter:  18 23:56:07   -67.944521c -6.60  -4.53c
iter:  19 00:00:02   -67.944521c -6.76  -4.78c
iter:  20 00:03:57   -67.944521c -6.66  -4.88c
iter:  21 00:08:25   -67.944521c -6.78  -4.87c
iter:  22 00:13:42   -67.944521c -7.14  -5.02c
iter:  23 00:18:13   -67.944521c -7.22  -5.21c
iter:  24 00:21:52   -67.944521c -7.39  -5.24c
iter:  25 00:26:00   -67.944521c -7.39  -5.40c
iter:  26 00:29:35   -67.944521c -7.59c -5.58c

Converged after 26 iterations.

Dipole moment: (1.775022, -5.948724, 0.058358) |e|*Ang

Energy contributions relative to reference atoms: (reference = -8815.035974)

Kinetic:        +71.713309
Potential:      -61.647566
External:        +0.000000
XC:             -77.995930
Entropy (-ST):   -0.137992
Local:           +0.054662
--------------------------
Free energy:    -68.013517
Extrapolated:   -67.944521

Dipole-layer corrected work functions: 3.196279, 3.084095 eV

Showing only first 2 kpts
 Kpt  Band  Eigenvalues  Occupancy
  0    18     -3.43724    1.99475
  0    19     -3.31197    1.93761
  0    20     -3.12001    0.80089
  0    21     -3.00379    0.12269

  1    18     -3.38052    1.98378
  1    19     -3.29030    1.90535
  1    20     -3.14912    1.08907
  1    21     -3.05420    0.30379


Fermi level: -3.14019

No gap

Forces in eV/Ang:
  0 Li    0.00245   -0.00001   -0.35673
  1 Li   -0.00246   -0.00001   -0.35670
  2 Li    0.00001    0.00024   -0.33599
  3 Li   -0.00095   -0.00082   -0.35927
  4 Li    0.00094   -0.00083   -0.35926
  5 Li    0.00001    0.00229   -0.35704
  6 Li   -0.00067    0.00078   -0.35921
  7 Li    0.00066    0.00078   -0.35919
  8 Li    0.00001   -0.00262   -0.35640
  9 Li   -0.00685    0.00720    0.25598
 10 Li    0.00001    0.01827    0.32234
 11 Li    0.00684    0.00720    0.25599
 12 Li   -0.00764   -0.00728    0.25648
 13 Li    0.00001   -0.01784    0.32255
 14 Li    0.00763   -0.00728    0.25649
 15 Li   -0.01806    0.00043    0.32244
 16 Li   -0.00000   -0.00010    0.37002
 17 Li    0.01806    0.00043    0.32245
 18 Li   -0.00866    0.00023    0.01423
 19 Li    0.00868    0.00023    0.01423
 20 Li   -0.00001   -0.00195   -0.05832
 21 Li    0.00403    0.00442    0.01623
 22 Li   -0.00403    0.00441    0.01624
 23 Li   -0.00000   -0.00617    0.01345
 24 Li    0.00531   -0.00492    0.01535
 25 Li   -0.00530   -0.00492    0.01535
 26 Li   -0.00000    0.01120    0.01504
 27 Li    0.10254   -0.10703    0.00386
 28 Li    0.00000   -0.00576    0.07125
 29 Li   -0.10255   -0.10702    0.00386
 30 Li    0.06336    0.05857   -0.00313
 31 Li    0.00000    0.00568    0.07126
 32 Li   -0.06336    0.05857   -0.00313
 33 Li    0.00572   -0.00220    0.07125
 34 Li    0.00001    0.00010    0.05615
 35 Li   -0.00572   -0.00220    0.07125
 36 N    -0.00006    0.08807    0.06345

System changes: positions 

Initializing position-dependent things.

Density initialized from wave functions
       .-----------------------.  
      /|                       |  
     / |                       |  
    /  |                       |  
   /   |                       |  
  /    |                       |  
 *     |                       |  
 |     |                       |  
 |     |                       |  
 |     |                       |  
 |     |                       |  
 |     |                       |  
 |     |       Li              |  
 |     |                       |  
 |   Li|     Li      Li        |  
 |     |  Li      Li      Li   |  
 |     |   Li       Li    Li   |  
 |     |Li      LiLi  N Li     |  
 |     |                       |  
 |   LLi     LLi     LLi       |  
 |     |  Li      Li      Li   |  
 | Li  |   Li      Li          |  
 |     |Li      Li      Li     |  
 Li    | Li      Li            |  
 |    Li      Li      Li       |  
 |     |                       |  
 |     |                       |  
 |     |                       |  
 |     |                       |  
 |     |                       |  
 |     |                       |  
 |     .-----------------------.  
 |    /                       /   
 |   /                       /    
 |  /                       /     
 | /                       /      
 |/                       /       
 *-----------------------*        

Positions:
   0 Li     1.617037    1.617037   10.000000    ( 0.0000,  0.0000,  0.0000)
   1 Li     4.851111    1.617037   10.000000    ( 0.0000,  0.0000,  0.0000)
   2 Li     8.085185    1.617037   10.000000    ( 0.0000,  0.0000,  0.0000)
   3 Li     1.617037    4.851111   10.000000    ( 0.0000,  0.0000,  0.0000)
   4 Li     4.851111    4.851111   10.000000    ( 0.0000,  0.0000,  0.0000)
   5 Li     8.085185    4.851111   10.000000    ( 0.0000,  0.0000,  0.0000)
   6 Li     1.617037    8.085185   10.000000    ( 0.0000,  0.0000,  0.0000)
   7 Li     4.851111    8.085185   10.000000    ( 0.0000,  0.0000,  0.0000)
   8 Li     8.085185    8.085185   10.000000    ( 0.0000,  0.0000,  0.0000)
   9 Li     0.000000    0.000000   11.617037    ( 0.0000,  0.0000,  0.0000)
  10 Li     3.234074    0.000000   11.617037    ( 0.0000,  0.0000,  0.0000)
  11 Li     6.468148    0.000000   11.617037    ( 0.0000,  0.0000,  0.0000)
  12 Li     0.000000    3.234074   11.617037    ( 0.0000,  0.0000,  0.0000)
  13 Li     3.234074    3.234074   11.617037    ( 0.0000,  0.0000,  0.0000)
  14 Li     6.468148    3.234074   11.617037    ( 0.0000,  0.0000,  0.0000)
  15 Li     0.000000    6.468148   11.617037    ( 0.0000,  0.0000,  0.0000)
  16 Li     3.234074    6.468148   11.617037    ( 0.0000,  0.0000,  0.0000)
  17 Li     6.468148    6.468148   11.617037    ( 0.0000,  0.0000,  0.0000)
  18 Li     1.617288    1.617035   13.563541    ( 0.0000,  0.0000,  0.0000)
  19 Li     4.850860    1.617038   13.563540    ( 0.0000,  0.0000,  0.0000)
  20 Li     8.085185    1.617037   13.649321    ( 0.0000,  0.0000,  0.0000)
  21 Li     1.593682    4.827756   13.543706    ( 0.0000,  0.0000,  0.0000)
  22 Li     4.874466    4.827756   13.543703    ( 0.0000,  0.0000,  0.0000)
  23 Li     8.085184    4.851362   13.563540    ( 0.0000,  0.0000,  0.0000)
  24 Li     1.593682    8.108540   13.543702    ( 0.0000,  0.0000,  0.0000)
  25 Li     4.874466    8.108540   13.543706    ( 0.0000,  0.0000,  0.0000)
  26 Li     8.085187    8.084934   13.563541    ( 0.0000,  0.0000,  0.0000)
  27 Li    -0.273142    0.273142   15.717288    ( 0.0000,  0.0000,  0.0000)
  28 Li     3.234074   -0.050562   15.501445    ( 0.0000,  0.0000,  0.0000)
  29 Li     6.741291    0.273141   15.717289    ( 0.0000,  0.0000,  0.0000)
  30 Li    -0.273141    2.960931   15.717289    ( 0.0000,  0.0000,  0.0000)
  31 Li     3.234074    3.284637   15.501445    ( 0.0000,  0.0000,  0.0000)
  32 Li     6.741290    2.960932   15.717288    ( 0.0000,  0.0000,  0.0000)
  33 Li     0.050562    6.468148   15.501445    ( 0.0000,  0.0000,  0.0000)
  34 Li     3.234074    6.468148   15.460310    ( 0.0000,  0.0000,  0.0000)
  35 Li     6.417585    6.468148   15.501445    ( 0.0000,  0.0000,  0.0000)
  36 N      8.085187    1.627035   15.538685    ( 0.0000,  0.0000,  0.0000)

Unit cell:
           periodic     x           y           z      points  spacing
  1. axis:    yes    9.702222    0.000000    0.000000    60     0.1617
  2. axis:    yes    0.000000    9.702222    0.000000    60     0.1617
  3. axis:    no     0.000000    0.000000   24.851111   156     0.1593

  Lengths:   9.702222   9.702222  24.851111
  Angles:   90.000000  90.000000  90.000000

Effective grid spacing dv^(1/3) = 0.1609

     iter     time        total  log10-change:
                         energy  eigst   dens
iter:   1 00:34:01   -67.946050  -2.11
iter:   2 00:38:00   -67.945611  -2.87  -2.45
iter:   3 00:41:35   -67.944706c -2.40  -2.57
iter:   4 00:45:35   -67.944576c -3.15  -2.68
iter:   5 00:49:34   -67.944579c -2.72  -3.04
iter:   6 00:52:50   -67.944599c -2.84  -2.90
iter:   7 00:56:25   -67.944629c -3.33  -3.07
iter:   8 01:00:37   -67.944532c -3.83  -2.90
iter:   9 01:02:01   -67.944518c -3.76  -3.43
iter:  10 01:03:16   -67.944526c -4.01  -3.54
iter:  11 01:04:16   -67.944521c -4.73  -3.58
iter:  12 01:05:07   -67.944521c -5.06  -3.81
iter:  13 01:05:55   -67.944522c -5.05  -3.85
iter:  14 01:06:30   -67.944521c -4.92  -3.85
iter:  15 01:07:27   -67.944521c -5.57  -4.16c
iter:  16 01:08:14   -67.944521c -5.57  -4.21c
iter:  17 01:08:57   -67.944521c -5.50  -4.24c
iter:  18 01:09:49   -67.944521c -5.98  -4.40c
iter:  19 01:10:37   -67.944521c -6.24  -4.59c
iter:  20 01:11:32   -67.944521c -6.20  -4.65c
iter:  21 01:12:11   -67.944521c -6.32  -4.76c
iter:  22 01:12:40   -67.944521c -6.57  -4.88c
iter:  23 01:13:11   -67.944521c -6.52  -5.03c
iter:  24 01:13:46   -67.944521c -6.79  -5.17c
iter:  25 01:14:22   -67.944521c -6.78  -5.28c
iter:  26 01:14:49   -67.944521c -6.95  -5.25c
iter:  27 01:15:20   -67.944521c -7.02  -5.27c
iter:  28 01:15:56   -67.944521c -7.19  -5.38c
iter:  29 01:16:41   -67.944521c -7.22  -5.43c
iter:  30 01:17:29   -67.944521c -7.41c -5.55c

Converged after 30 iterations.

Dipole moment: (1.775023, -5.978980, 0.058358) |e|*Ang

Energy contributions relative to reference atoms: (reference = -8815.035974)

Kinetic:        +71.713335
Potential:      -61.647587
External:        +0.000000
XC:             -77.995934
Entropy (-ST):   -0.137992
Local:           +0.054661
--------------------------
Free energy:    -68.013517
Extrapolated:   -67.944521

Dipole-layer corrected work functions: 3.196279, 3.084096 eV

Showing only first 2 kpts
 Kpt  Band  Eigenvalues  Occupancy
  0    18     -3.43724    1.99476
  0    19     -3.31197    1.93761
  0    20     -3.12001    0.80089
  0    21     -3.00379    0.12269

  1    18     -3.38052    1.98378
  1    19     -3.29030    1.90535
  1    20     -3.14912    1.08907
  1    21     -3.05420    0.30379


Fermi level: -3.14019

No gap

Forces in eV/Ang:
  0 Li    0.00245    0.00002   -0.35672
  1 Li   -0.00245    0.00002   -0.35672
  2 Li    0.00000   -0.00023   -0.33599
  3 Li   -0.00067   -0.00079   -0.35921
  4 Li    0.00067   -0.00079   -0.35921
  5 Li    0.00000    0.00261   -0.35640
  6 Li   -0.00094    0.00082   -0.35926
  7 Li    0.00094    0.00082   -0.35926
  8 Li    0.00000   -0.00230   -0.35704
  9 Li   -0.00764    0.00728    0.25649
 10 Li    0.00000    0.01784    0.32256
 11 Li    0.00764    0.00728    0.25650
 12 Li   -0.00685   -0.00720    0.25597
 13 Li   -0.00000   -0.01827    0.32233
 14 Li    0.00685   -0.00721    0.25597
 15 Li   -0.01806   -0.00042    0.32245
 16 Li    0.00000    0.00011    0.37002
 17 Li    0.01806   -0.00042    0.32245
 18 Li   -0.00867   -0.00024    0.01423
 19 Li    0.00867   -0.00024    0.01423
 20 Li   -0.00000    0.00195   -0.05833
 21 Li    0.00530    0.00492    0.01535
 22 Li   -0.00530    0.00492    0.01536
 23 Li    0.00000   -0.01120    0.01505
 24 Li    0.00403   -0.00441    0.01624
 25 Li   -0.00403   -0.00441    0.01623
 26 Li   -0.00000    0.00617    0.01344
 27 Li    0.06337   -0.05857   -0.00313
 28 Li    0.00000   -0.00568    0.07125
 29 Li   -0.06336   -0.05856   -0.00313
 30 Li    0.10254    0.10703    0.00386
 31 Li    0.00000    0.00575    0.07125
 32 Li   -0.10253    0.10702    0.00386
 33 Li    0.00572    0.00218    0.07125
 34 Li    0.00000   -0.00009    0.05616
 35 Li   -0.00572    0.00218    0.07125
 36 N    -0.00001   -0.08825    0.06345

System changes: positions 

Initializing position-dependent things.

Density initialized from wave functions
       .-----------------------.  
      /|                       |  
     / |                       |  
    /  |                       |  
   /   |                       |  
  /    |                       |  
 *     |                       |  
 |     |                       |  
 |     |                       |  
 |     |                       |  
 |     |                       |  
 |     |                       |  
 |     |       Li              |  
 |     |                       |  
 |   Li|     Li      Li        |  
 |     |  Li      Li      Li   |  
 |     |   Li       Li    Li   |  
 |     |Li      LiLi  N Li     |  
 |     |                       |  
 |   LLi     LLi     LLi       |  
 |     |  Li      Li      Li   |  
 | Li  |   Li      Li          |  
 |     |Li      Li      Li     |  
 Li    | Li      Li            |  
 |    Li      Li      Li       |  
 |     |                       |  
 |     |                       |  
 |     |                       |  
 |     |                       |  
 |     |                       |  
 |     |                       |  
 |     .-----------------------.  
 |    /                       /   
 |   /                       /    
 |  /                       /     
 | /                       /      
 |/                       /       
 *-----------------------*        

Positions:
   0 Li     1.617037    1.617037   10.000000    ( 0.0000,  0.0000,  0.0000)
   1 Li     4.851111    1.617037   10.000000    ( 0.0000,  0.0000,  0.0000)
   2 Li     8.085185    1.617037   10.000000    ( 0.0000,  0.0000,  0.0000)
   3 Li     1.617037    4.851111   10.000000    ( 0.0000,  0.0000,  0.0000)
   4 Li     4.851111    4.851111   10.000000    ( 0.0000,  0.0000,  0.0000)
   5 Li     8.085185    4.851111   10.000000    ( 0.0000,  0.0000,  0.0000)
   6 Li     1.617037    8.085185   10.000000    ( 0.0000,  0.0000,  0.0000)
   7 Li     4.851111    8.085185   10.000000    ( 0.0000,  0.0000,  0.0000)
   8 Li     8.085185    8.085185   10.000000    ( 0.0000,  0.0000,  0.0000)
   9 Li     0.000000    0.000000   11.617037    ( 0.0000,  0.0000,  0.0000)
  10 Li     3.234074    0.000000   11.617037    ( 0.0000,  0.0000,  0.0000)
  11 Li     6.468148    0.000000   11.617037    ( 0.0000,  0.0000,  0.0000)
  12 Li     0.000000    3.234074   11.617037    ( 0.0000,  0.0000,  0.0000)
  13 Li     3.234074    3.234074   11.617037    ( 0.0000,  0.0000,  0.0000)
  14 Li     6.468148    3.234074   11.617037    ( 0.0000,  0.0000,  0.0000)
  15 Li     0.000000    6.468148   11.617037    ( 0.0000,  0.0000,  0.0000)
  16 Li     3.234074    6.468148   11.617037    ( 0.0000,  0.0000,  0.0000)
  17 Li     6.468148    6.468148   11.617037    ( 0.0000,  0.0000,  0.0000)
  18 Li     1.617288    1.617035   13.563541    ( 0.0000,  0.0000,  0.0000)
  19 Li     4.850860    1.617038   13.563540    ( 0.0000,  0.0000,  0.0000)
  20 Li     8.085185    1.617037   13.649321    ( 0.0000,  0.0000,  0.0000)
  21 Li     1.593682    4.827756   13.543706    ( 0.0000,  0.0000,  0.0000)
  22 Li     4.874466    4.827756   13.543703    ( 0.0000,  0.0000,  0.0000)
  23 Li     8.085184    4.851362   13.563540    ( 0.0000,  0.0000,  0.0000)
  24 Li     1.593682    8.108540   13.543702    ( 0.0000,  0.0000,  0.0000)
  25 Li     4.874466    8.108540   13.543706    ( 0.0000,  0.0000,  0.0000)
  26 Li     8.085187    8.084934   13.563541    ( 0.0000,  0.0000,  0.0000)
  27 Li    -0.273142    0.273142   15.717288    ( 0.0000,  0.0000,  0.0000)
  28 Li     3.234074   -0.050562   15.501445    ( 0.0000,  0.0000,  0.0000)
  29 Li     6.741291    0.273141   15.717289    ( 0.0000,  0.0000,  0.0000)
  30 Li    -0.273141    2.960931   15.717289    ( 0.0000,  0.0000,  0.0000)
  31 Li     3.234074    3.284637   15.501445    ( 0.0000,  0.0000,  0.0000)
  32 Li     6.741290    2.960932   15.717288    ( 0.0000,  0.0000,  0.0000)
  33 Li     0.050562    6.468148   15.501445    ( 0.0000,  0.0000,  0.0000)
  34 Li     3.234074    6.468148   15.460310    ( 0.0000,  0.0000,  0.0000)
  35 Li     6.417585    6.468148   15.501445    ( 0.0000,  0.0000,  0.0000)
  36 N      8.085187    1.617035   15.528685    ( 0.0000,  0.0000,  0.0000)

Unit cell:
           periodic     x           y           z      points  spacing
  1. axis:    yes    9.702222    0.000000    0.000000    60     0.1617
  2. axis:    yes    0.000000    9.702222    0.000000    60     0.1617
  3. axis:    no     0.000000    0.000000   24.851111   156     0.1593

  Lengths:   9.702222   9.702222  24.851111
  Angles:   90.000000  90.000000  90.000000

Effective grid spacing dv^(1/3) = 0.1609

     iter     time        total  log10-change:
                         energy  eigst   dens
iter:   1 01:18:49   -67.944480  -2.41
iter:   2 01:20:15   -67.944117  -3.11  -2.56
iter:   3 01:21:37   -67.943847c -3.29  -2.68
iter:   4 01:22:48   -67.943662c -2.56  -2.85
iter:   5 01:24:06   -67.943590c -3.50  -2.88
iter:   6 01:25:22   -67.943583c -3.28  -3.22
iter:   7 01:26:25   -67.943576c -3.37  -3.16
iter:   8 01:27:01   -67.943570c -3.95  -3.29
iter:   9 01:28:24   -67.943542c -4.12  -3.27
iter:  10 01:29:19   -67.943542c -4.65  -3.57
iter:  11 01:30:17   -67.943555c -4.64  -3.60
iter:  12 01:30:57   -67.943559c -4.67  -3.63
iter:  13 01:31:58   -67.943555c -5.64  -3.80
iter:  14 01:32:39   -67.943552c -5.05  -3.93
iter:  15 01:33:41   -67.943556c -5.45  -4.03c
iter:  16 01:34:38   -67.943554c -6.23  -4.07c
iter:  17 01:35:37   -67.943553c -6.09  -4.21c
iter:  18 01:36:36   -67.943552c -5.96  -4.28c
iter:  19 01:37:08   -67.943551c -6.36  -4.51c
iter:  20 01:38:05   -67.943552c -6.94  -4.74c
iter:  21 01:39:04   -67.943553c -6.50  -4.78c
iter:  22 01:40:05   -67.943552c -6.86  -4.76c
iter:  23 01:41:09   -67.943552c -7.29  -4.94c
iter:  24 01:41:47   -67.943552c -7.32  -5.01c
iter:  25 01:42:21   -67.943552c -7.41c -5.27c

Converged after 25 iterations.

Dipole moment: (1.780890, -5.970137, 0.060022) |e|*Ang

Energy contributions relative to reference atoms: (reference = -8815.035974)

Kinetic:        +71.768138
Potential:      -61.689039
External:        +0.000000
XC:             -78.008208
Entropy (-ST):   -0.138013
Local:           +0.054563
--------------------------
Free energy:    -68.012559
Extrapolated:   -67.943552

Dipole-layer corrected work functions: 3.196096, 3.080713 eV

Showing only first 2 kpts
 Kpt  Band  Eigenvalues  Occupancy
  0    18     -3.43499    1.99471
  0    19     -3.31045    1.93792
  0    20     -3.11825    0.80115
  0    21     -3.00131    0.12108

  1    18     -3.37888    1.98383
  1    19     -3.28839    1.90512
  1    20     -3.14703    1.08605
  1    21     -3.05247    0.30406


Fermi level: -3.13840

No gap

Forces in eV/Ang:
  0 Li    0.00260   -0.00000   -0.35671
  1 Li   -0.00260   -0.00000   -0.35671
  2 Li    0.00000    0.00001   -0.33597
  3 Li   -0.00086   -0.00086   -0.35915
  4 Li    0.00086   -0.00086   -0.35915
  5 Li   -0.00000    0.00259   -0.35671
  6 Li   -0.00085    0.00086   -0.35915
  7 Li    0.00085    0.00086   -0.35915
  8 Li    0.00000   -0.00261   -0.35669
  9 Li   -0.00716    0.00716    0.25574
 10 Li    0.00000    0.01820    0.32252
 11 Li    0.00716    0.00716    0.25574
 12 Li   -0.00715   -0.00716    0.25574
 13 Li   -0.00000   -0.01818    0.32255
 14 Li    0.00715   -0.00716    0.25574
 15 Li   -0.01819    0.00000    0.32254
 16 Li    0.00000   -0.00001    0.37004
 17 Li    0.01819    0.00000    0.32254
 18 Li   -0.00917    0.00003    0.01488
 19 Li    0.00917    0.00002    0.01488
 20 Li   -0.00000   -0.00000   -0.11062
 21 Li    0.00500    0.00497    0.01583
 22 Li   -0.00500    0.00497    0.01584
 23 Li    0.00000   -0.00916    0.01488
 24 Li    0.00497   -0.00500    0.01584
 25 Li   -0.00497   -0.00500    0.01584
 26 Li   -0.00000    0.00919    0.01488
 27 Li    0.08006   -0.08006   -0.00502
 28 Li    0.00000   -0.00551    0.07152
 29 Li   -0.08005   -0.08005   -0.00502
 30 Li    0.08002    0.08003   -0.00502
 31 Li    0.00000    0.00553    0.07152
 32 Li   -0.08001    0.08002   -0.00502
 33 Li    0.00553    0.00000    0.07152
 34 Li    0.00000   -0.00002    0.05646
 35 Li   -0.00553   -0.00000    0.07152
 36 N    -0.00000    0.00025    0.17032

System changes: positions 

Initializing position-dependent things.

Density initialized from wave functions
       .-----------------------.  
      /|                       |  
     / |                       |  
    /  |                       |  
   /   |                       |  
  /    |                       |  
 *     |                       |  
 |     |                       |  
 |     |                       |  
 |     |                       |  
 |     |                       |  
 |     |                       |  
 |     |       Li              |  
 |     |                       |  
 |   Li|     Li      Li        |  
 |     |  Li      Li      Li   |  
 |     |   Li       Li    Li   |  
 |     |Li      LiLi  N Li     |  
 |     |                       |  
 |   LLi     LLi     LLi       |  
 |     |  Li      Li      Li   |  
 | Li  |   Li      Li          |  
 |     |Li      Li      Li     |  
 Li    | Li      Li            |  
 |    Li      Li      Li       |  
 |     |                       |  
 |     |                       |  
 |     |                       |  
 |     |                       |  
 |     |                       |  
 |     |                       |  
 |     .-----------------------.  
 |    /                       /   
 |   /                       /    
 |  /                       /     
 | /                       /      
 |/                       /       
 *-----------------------*        

Positions:
   0 Li     1.617037    1.617037   10.000000    ( 0.0000,  0.0000,  0.0000)
   1 Li     4.851111    1.617037   10.000000    ( 0.0000,  0.0000,  0.0000)
   2 Li     8.085185    1.617037   10.000000    ( 0.0000,  0.0000,  0.0000)
   3 Li     1.617037    4.851111   10.000000    ( 0.0000,  0.0000,  0.0000)
   4 Li     4.851111    4.851111   10.000000    ( 0.0000,  0.0000,  0.0000)
   5 Li     8.085185    4.851111   10.000000    ( 0.0000,  0.0000,  0.0000)
   6 Li     1.617037    8.085185   10.000000    ( 0.0000,  0.0000,  0.0000)
   7 Li     4.851111    8.085185   10.000000    ( 0.0000,  0.0000,  0.0000)
   8 Li     8.085185    8.085185   10.000000    ( 0.0000,  0.0000,  0.0000)
   9 Li     0.000000    0.000000   11.617037    ( 0.0000,  0.0000,  0.0000)
  10 Li     3.234074    0.000000   11.617037    ( 0.0000,  0.0000,  0.0000)
  11 Li     6.468148    0.000000   11.617037    ( 0.0000,  0.0000,  0.0000)
  12 Li     0.000000    3.234074   11.617037    ( 0.0000,  0.0000,  0.0000)
  13 Li     3.234074    3.234074   11.617037    ( 0.0000,  0.0000,  0.0000)
  14 Li     6.468148    3.234074   11.617037    ( 0.0000,  0.0000,  0.0000)
  15 Li     0.000000    6.468148   11.617037    ( 0.0000,  0.0000,  0.0000)
  16 Li     3.234074    6.468148   11.617037    ( 0.0000,  0.0000,  0.0000)
  17 Li     6.468148    6.468148   11.617037    ( 0.0000,  0.0000,  0.0000)
  18 Li     1.617288    1.617035   13.563541    ( 0.0000,  0.0000,  0.0000)
  19 Li     4.850860    1.617038   13.563540    ( 0.0000,  0.0000,  0.0000)
  20 Li     8.085185    1.617037   13.649321    ( 0.0000,  0.0000,  0.0000)
  21 Li     1.593682    4.827756   13.543706    ( 0.0000,  0.0000,  0.0000)
  22 Li     4.874466    4.827756   13.543703    ( 0.0000,  0.0000,  0.0000)
  23 Li     8.085184    4.851362   13.563540    ( 0.0000,  0.0000,  0.0000)
  24 Li     1.593682    8.108540   13.543702    ( 0.0000,  0.0000,  0.0000)
  25 Li     4.874466    8.108540   13.543706    ( 0.0000,  0.0000,  0.0000)
  26 Li     8.085187    8.084934   13.563541    ( 0.0000,  0.0000,  0.0000)
  27 Li    -0.273142    0.273142   15.717288    ( 0.0000,  0.0000,  0.0000)
  28 Li     3.234074   -0.050562   15.501445    ( 0.0000,  0.0000,  0.0000)
  29 Li     6.741291    0.273141   15.717289    ( 0.0000,  0.0000,  0.0000)
  30 Li    -0.273141    2.960931   15.717289    ( 0.0000,  0.0000,  0.0000)
  31 Li     3.234074    3.284637   15.501445    ( 0.0000,  0.0000,  0.0000)
  32 Li     6.741290    2.960932   15.717288    ( 0.0000,  0.0000,  0.0000)
  33 Li     0.050562    6.468148   15.501445    ( 0.0000,  0.0000,  0.0000)
  34 Li     3.234074    6.468148   15.460310    ( 0.0000,  0.0000,  0.0000)
  35 Li     6.417585    6.468148   15.501445    ( 0.0000,  0.0000,  0.0000)
  36 N      8.085187    1.617035   15.548685    ( 0.0000,  0.0000,  0.0000)

Unit cell:
           periodic     x           y           z      points  spacing
  1. axis:    yes    9.702222    0.000000    0.000000    60     0.1617
  2. axis:    yes    0.000000    9.702222    0.000000    60     0.1617
  3. axis:    no     0.000000    0.000000   24.851111   156     0.1593

  Lengths:   9.702222   9.702222  24.851111
  Angles:   90.000000  90.000000  90.000000

Effective grid spacing dv^(1/3) = 0.1609

     iter     time        total  log10-change:
                         energy  eigst   dens
iter:   1 01:43:31   -67.947475  -2.12
iter:   2 01:44:19   -67.946636  -2.87  -2.36
iter:   3 01:44:48   -67.946246c -3.14  -2.50
iter:   4 01:45:38   -67.945781c -2.24  -2.61
iter:   5 01:46:09   -67.945683c -2.91  -2.68
iter:   6 01:46:40   -67.945660c -2.81  -2.90
iter:   7 01:47:32   -67.945496c -3.25  -2.81
iter:   8 01:48:39   -67.945607c -2.94  -3.21
iter:   9 01:49:41   -67.945507c -4.17  -3.04
iter:  10 01:50:51   -67.945533c -4.17  -3.24
iter:  11 01:52:04   -67.945516c -3.92  -3.14
iter:  12 01:52:52   -67.945518c -4.27  -3.51
iter:  13 01:53:45   -67.945498c -5.07  -3.49
iter:  14 01:55:00   -67.945479c -4.84  -3.72
iter:  15 01:57:02   -67.945482c -5.36  -3.92
iter:  16 01:57:57   -67.945493c -5.07  -3.93
iter:  17 01:58:47   -67.945485c -5.54  -3.96
iter:  18 01:59:28   -67.945487c -6.17  -4.30c
iter:  19 02:00:02   -67.945491c -5.96  -4.35c
iter:  20 02:00:47   -67.945490c -5.99  -4.29c
iter:  21 02:01:29   -67.945489c -6.56  -4.56c
iter:  22 02:01:58   -67.945489c -6.53  -4.55c
iter:  23 02:02:42   -67.945490c -6.65  -4.59c
iter:  24 02:03:44   -67.945489c -6.77  -4.82c
iter:  25 02:04:23   -67.945489c -7.04  -4.98c
iter:  26 02:04:50   -67.945489c -7.01  -4.99c
iter:  27 02:05:20   -67.945489c -7.10  -5.09c
iter:  28 02:06:52   -67.945489c -7.37  -5.34c
iter:  29 02:08:47   -67.945489c -7.61c -5.32c

Converged after 29 iterations.

Dipole moment: (1.769116, -5.957371, 0.056629) |e|*Ang

Energy contributions relative to reference atoms: (reference = -8815.035974)

Kinetic:        +71.653939
Potential:      -61.602447
External:        +0.000000
XC:             -77.982900
Entropy (-ST):   -0.137971
Local:           +0.054905
--------------------------
Free energy:    -68.014475
Extrapolated:   -67.945489

Dipole-layer corrected work functions: 3.196437, 3.087577 eV

Showing only first 2 kpts
 Kpt  Band  Eigenvalues  Occupancy
  0    18     -3.43950    1.99480
  0    19     -3.31356    1.93732
  0    20     -3.12180    0.80061
  0    21     -3.00631    0.12431

  1    18     -3.38219    1.98373
  1    19     -3.29224    1.90556
  1    20     -3.15126    1.09223
  1    21     -3.05595    0.30343


Fermi level: -3.14201

No gap

Forces in eV/Ang:
  0 Li    0.00230    0.00000   -0.35670
  1 Li   -0.00230    0.00000   -0.35670
  2 Li   -0.00000   -0.00000   -0.33600
  3 Li   -0.00077   -0.00077   -0.35931
  4 Li    0.00077   -0.00077   -0.35931
  5 Li   -0.00000    0.00230   -0.35670
  6 Li   -0.00077    0.00077   -0.35931
  7 Li    0.00077    0.00077   -0.35931
  8 Li    0.00000   -0.00230   -0.35670
  9 Li   -0.00733    0.00733    0.25673
 10 Li    0.00000    0.01794    0.32235
 11 Li    0.00733    0.00733    0.25673
 12 Li   -0.00733   -0.00733    0.25673
 13 Li   -0.00000   -0.01794    0.32235
 14 Li    0.00733   -0.00734    0.25673
 15 Li   -0.01794   -0.00000    0.32235
 16 Li    0.00000   -0.00000    0.37001
 17 Li    0.01794    0.00000    0.32235
 18 Li   -0.00819    0.00000    0.01356
 19 Li    0.00819   -0.00000    0.01356
 20 Li   -0.00000    0.00000   -0.00917
 21 Li    0.00434    0.00434    0.01574
 22 Li   -0.00434    0.00434    0.01575
 23 Li    0.00000   -0.00819    0.01356
 24 Li    0.00434   -0.00434    0.01575
 25 Li   -0.00434   -0.00434    0.01574
 26 Li   -0.00000    0.00819    0.01356
 27 Li    0.08478   -0.08478    0.00559
 28 Li    0.00000   -0.00590    0.07100
 29 Li   -0.08477   -0.08477    0.00559
 30 Li    0.08477    0.08477    0.00559
 31 Li    0.00000    0.00590    0.07100
 32 Li   -0.08476    0.08476    0.00559
 33 Li    0.00590    0.00000    0.07100
 34 Li    0.00000    0.00000    0.05587
 35 Li   -0.00590   -0.00000    0.07100
 36 N    -0.00003    0.00003    0.03560

Timing:                                      incl.     excl.
-------------------------------------------------------------------
Density initialized from wave functions:     1.648     1.648   0.0% |
 Symmetrize density:                         0.000     0.000   0.0% |
Forces:                                     50.517    50.517   0.1% |
Hamiltonian:                                17.951     0.001   0.0% |
 Atomic:                                     0.272     0.005   0.0% |
  XC Correction:                             0.267     0.267   0.0% |
 Calculate atomic Hamiltonians:              1.981     1.981   0.0% |
 Communicate:                                1.771     1.771   0.0% |
 Hartree integrate/restrict:                 1.379     1.379   0.0% |
 Initialize Hamiltonian:                     0.000     0.000   0.0% |
 Poisson:                                    8.577     2.174   0.0% |
  Communicate from 1D:                       1.834     1.834   0.0% |
  Communicate from 2D:                       1.760     1.760   0.0% |
  Communicate to 1D:                         0.283     0.283   0.0% |
  Communicate to 2D:                         2.153     2.153   0.0% |
  FFT 1D:                                    0.191     0.191   0.0% |
  FFT 2D:                                    0.182     0.182   0.0% |
 XC 3D grid:                                 3.961     3.961   0.0% |
 vbar:                                       0.010     0.010   0.0% |
LCAO initialization:                         4.351     0.083   0.0% |
 LCAO eigensolver:                           0.558     0.002   0.0% |
  Calculate projections:                     0.000     0.000   0.0% |
  DenseAtomicCorrection:                     0.000     0.000   0.0% |
  Distribute overlap matrix:                 0.407     0.407   0.0% |
  Orbital Layouts:                           0.142     0.142   0.0% |
  Potential matrix:                          0.000     0.000   0.0% |
  Sum over cells:                            0.005     0.005   0.0% |
 LCAO to grid:                               3.141     3.141   0.0% |
 Set positions (LCAO WFS):                   0.569     0.454   0.0% |
  Basic WFS set positions:                   0.002     0.002   0.0% |
  Basis functions set positions:             0.000     0.000   0.0% |
  P tci:                                     0.002     0.002   0.0% |
  ST tci:                                    0.057     0.057   0.0% |
  mktci:                                     0.054     0.054   0.0% |
Redistribute:                                0.012     0.012   0.0% |
SCF-cycle:                               40456.676  1689.056   4.2% |-|
 Davidson:                               37960.607 29738.962  73.2% |----------------------------|
  Apply hamiltonian:                      1546.205  1546.205   3.8% |-|
  Subspace diag:                          1859.293     0.414   0.0% |
   calc_h_matrix:                         1422.651    43.635   0.1% |
    Apply hamiltonian:                    1379.016  1379.016   3.4% ||
   diagonalize:                            315.084   315.084   0.8% |
   rotate_psi:                             121.144   121.144   0.3% |
  calc. matrices:                         4488.629  1404.078   3.5% ||
   Apply hamiltonian:                     3084.551  3084.551   7.6% |--|
  diagonalize:                               7.291     7.291   0.0% |
  rotate_psi:                              320.227   320.227   0.8% |
 Density:                                  109.508     0.009   0.0% |
  Atomic density matrices:                  16.257    16.257   0.0% |
  Mix:                                      57.285    57.285   0.1% |
  Multipole moments:                        20.079    20.079   0.0% |
  Pseudo density:                           15.877    15.864   0.0% |
   Symmetrize density:                       0.013     0.013   0.0% |
 Hamiltonian:                              687.605     0.038   0.0% |
  Atomic:                                   11.947     0.308   0.0% |
   XC Correction:                           11.639    11.639   0.0% |
  Calculate atomic Hamiltonians:            21.849    21.849   0.1% |
  Communicate:                              74.071    74.071   0.2% |
  Hartree integrate/restrict:               89.929    89.929   0.2% |
  Poisson:                                 324.622    87.334   0.2% |
   Communicate from 1D:                     66.009    66.009   0.2% |
   Communicate from 2D:                     72.372    72.372   0.2% |
   Communicate to 1D:                       11.828    11.828   0.0% |
   Communicate to 2D:                       70.940    70.940   0.2% |
   FFT 1D:                                   8.286     8.286   0.0% |
   FFT 2D:                                   7.853     7.853   0.0% |
  XC 3D grid:                              164.615   164.615   0.4% |
  vbar:                                      0.535     0.535   0.0% |
 Orthonormalize:                             9.900     0.011   0.0% |
  calc_s_matrix:                             0.684     0.684   0.0% |
  inverse-cholesky:                          7.695     7.695   0.0% |
  projections:                               0.003     0.003   0.0% |
  rotate_psi_s:                              1.507     1.507   0.0% |
Set symmetry:                                0.003     0.003   0.0% |
Other:                                      88.229    88.229   0.2% |
-------------------------------------------------------------------
Total:                                             40619.389 100.0%

Memory usage: 343.88 MiB
Date: Thu Feb  2 02:08:51 2023
