
  ___ ___ ___ _ _ _  
 |   |   |_  | | | | 
 | | | | | . | | | | 
 |__ |  _|___|_____|  22.8.0
 |___|_|             

User:   vazumah@d023
Date:   Wed Feb  1 14:51:43 2023
Arch:   x86_64
Pid:    38411
CWD:    /home/vazumah/Python_Projects/Li_NRR/Li_adsorb_studies/autocat/adsorbates/N1/bridge/0.0_1.617
Python: 3.10.6
gpaw:   /home/vazumah/anaconda3/envs/NAME/lib/python3.10/site-packages/gpaw
_gpaw:  /home/vazumah/anaconda3/envs/NAME/lib/python3.10/site-packages/
        _gpaw.cpython-310-x86_64-linux-gnu.so
ase:    /home/vazumah/anaconda3/envs/NAME/lib/python3.10/site-packages/ase (version 3.22.1)
numpy:  /home/vazumah/anaconda3/envs/NAME/lib/python3.10/site-packages/numpy (version 1.23.3)
scipy:  /home/vazumah/anaconda3/envs/NAME/lib/python3.10/site-packages/scipy (version 1.9.1)
libxc:  5.2.3
units:  Angstrom and eV
cores: 32
OpenMP: True
OMP_NUM_THREADS: 1

Input parameters:
  h: 0.16
  kpts: {size: [6, 6, 1]}
  occupations: {name: fermi-dirac,
                width: 0.05}
  poissonsolver: {dipolelayer: xy}
  symmetry: {point_group: False}
  xc: RPBE

System changes: positions, numbers, cell, pbc, initial_charges, initial_magmoms 

Initialize ...

species:
  Li:
    name: Lithium
    id: dcbe5181e2282205f1343ba35d013394
    Z: 3.0
    valence: 1
    core: 2
    charge: 0.0
    file: /home/vazumah/anaconda3/envs/NAME/share/gpaw/Li.RPBE.gz
    compensation charges: {type: gauss,
                           rc: 0.33,
                           lmax: 2}
    cutoffs: {filter: 1.91,
              core: 2.55}
    valence states:
      #              energy  rcut
      - 2s(1.00)    -2.901   1.058
      - 2p(0.00)    -1.114   1.058
      -  s          24.311   1.058
  
    # Using partial waves for Li as LCAO basis

  N:
    name: Nitrogen
    id: ee8436d228dc42b9589ef0e60c8ce05c
    Z: 7.0
    valence: 5
    core: 2
    charge: 0.0
    file: /home/vazumah/anaconda3/envs/NAME/share/gpaw/N.RPBE.gz
    compensation charges: {type: gauss,
                           rc: 0.18,
                           lmax: 2}
    cutoffs: {filter: 1.11,
              core: 0.96}
    valence states:
      #              energy  rcut
      - 2s(2.00)   -18.658   0.603
      - 2p(3.00)    -7.050   0.529
      -  s           8.553   0.603
      -  p          20.161   0.529
      -  d           0.000   0.577
  
    # Using partial waves for N as LCAO basis

Reference energy: -8815.035974  # eV

Spin-paired calculation

Convergence criteria:
 Maximum [total energy] change in last 3 cyles: 0.0005 eV / electron
 Maximum integral of absolute [dens]ity change: 0.0001 electrons / valence electron
 Maximum integral of absolute [eigenst]ate change: 4e-08 eV^2 / valence electron
 Maximum number of scf [iter]ations: 333
 (Square brackets indicate name in SCF output, whereas a 'c' in
 the SCF output indicates the quantity has converged.)

Symmetries present (total): 1

  ( 1  0  0)
  ( 0  1  0)
  ( 0  0  1)

36 k-points: 6 x 6 x 1 Monkhorst-Pack grid
18 k-points in the irreducible part of the Brillouin zone
       k-points in crystal coordinates                weights
   0:     0.08333333   -0.41666667    0.00000000          2/36
   1:     0.08333333   -0.25000000    0.00000000          2/36
   2:     0.08333333   -0.08333333    0.00000000          2/36
   3:     0.08333333    0.08333333    0.00000000          2/36
   4:     0.08333333    0.25000000    0.00000000          2/36
   5:     0.08333333    0.41666667    0.00000000          2/36
   6:     0.25000000   -0.41666667    0.00000000          2/36
   7:     0.25000000   -0.25000000    0.00000000          2/36
   8:     0.25000000   -0.08333333    0.00000000          2/36
   9:     0.25000000    0.08333333    0.00000000          2/36
          ...
  17:     0.41666667    0.41666667    0.00000000          2/36

Wave functions: Uniform real-space grid
  Kinetic energy operator: 6*3+1=19 point O(h^6) finite-difference Laplacian
  ScaLapack parameters: grid=1x1, blocksize=None
  Wavefunction extrapolation:
    Improved wavefunction reuse through dual PAW basis 

Occupation numbers: Fermi-Dirac:
  width: 0.0500  # eV
 

Eigensolver
   Davidson(niter=2) 

Densities:
  Coarse grid: 60*60*156 grid
  Fine grid: 120*120*312 grid
  Total Charge: 0.000000 

Density mixing:
  Method: separate
  Backend: pulay
  Linear mixing parameter: 0.05
  old densities: 5
  Damping of long wavelength oscillations: 50 

Hamiltonian:
  XC and Coulomb potentials evaluated on a 120*120*312 grid
  Using the RPBE Exchange-Correlation functional
  Interpolation: tri-quintic (5. degree polynomial)
  Poisson solver: FastPoissonSolver using
    Stencil: 6*3+1=19 point O(h^6) finite-difference Laplacian
    FFT axes: [0, 1]
    FST axes: [2]

Dipole correction along z-axis 

XC parameters: RPBE with 2 nearest neighbor stencil

Memory estimate:
  Process memory now: 124.75 MiB
  Calculator: 181.79 MiB
    Density: 21.61 MiB
      Arrays: 6.87 MiB
      Localized functions: 12.13 MiB
      Mixer: 2.61 MiB
    Hamiltonian: 5.45 MiB
      Arrays: 4.49 MiB
      XC: 0.00 MiB
      Poisson: 0.00 MiB
      vbar: 0.96 MiB
    Wavefunctions: 154.73 MiB
      Arrays psit_nG: 136.20 MiB
      Eigensolver: 17.87 MiB
      Projections: 0.05 MiB
      Projectors: 0.61 MiB

Total number of cores used: 32
Parallelization over k-points: 2
Domain decomposition: 2 x 2 x 4

Number of atoms: 37
Number of atomic orbitals: 148
Number of bands in calculation: 29
Number of valence electrons: 41
Bands to converge: occupied

... initialized

Initializing position-dependent things.

Density initialized from atomic densities
Creating initial wave functions:
  29 bands from LCAO basis set

       .-----------------------.  
      /|                       |  
     / |                       |  
    /  |                       |  
   /   |                       |  
  /    |                       |  
 *     |                       |  
 |     |                       |  
 |     |                       |  
 |     |                       |  
 |     |                       |  
 |     |                       |  
 |     |       Li      Li      |  
 |     |                       |  
 |   Li|     Li      Li        |  
 |     |  Li      Li      Li   |  
 |     |   Li      Li          |  
 | Li  |Li      Li      Li     |  
 |     |                       |  
 Li  Li|     LLi     Li        |  
 |N    Li Li      Li Li   Li   |  
 | Li  |   Li      Li          |  
 |     |Li      Li      Li     |  
 Li    | Li      Li            |  
 |    Li      Li      Li       |  
 |     |                       |  
 |     |                       |  
 |     |                       |  
 |     |                       |  
 |     |                       |  
 |     |                       |  
 |     .-----------------------.  
 |    /                       /   
 |   /                       /    
 |  /                       /     
 | /                       /      
 |/                       /       
 *-----------------------*        

Positions:
   0 Li     1.617037    1.617037   10.000000    ( 0.0000,  0.0000,  0.0000)
   1 Li     4.851111    1.617037   10.000000    ( 0.0000,  0.0000,  0.0000)
   2 Li     8.085185    1.617037   10.000000    ( 0.0000,  0.0000,  0.0000)
   3 Li     1.617037    4.851111   10.000000    ( 0.0000,  0.0000,  0.0000)
   4 Li     4.851111    4.851111   10.000000    ( 0.0000,  0.0000,  0.0000)
   5 Li     8.085185    4.851111   10.000000    ( 0.0000,  0.0000,  0.0000)
   6 Li     1.617037    8.085185   10.000000    ( 0.0000,  0.0000,  0.0000)
   7 Li     4.851111    8.085185   10.000000    ( 0.0000,  0.0000,  0.0000)
   8 Li     8.085185    8.085185   10.000000    ( 0.0000,  0.0000,  0.0000)
   9 Li     0.000000    0.000000   11.617037    ( 0.0000,  0.0000,  0.0000)
  10 Li     3.234074    0.000000   11.617037    ( 0.0000,  0.0000,  0.0000)
  11 Li     6.468148    0.000000   11.617037    ( 0.0000,  0.0000,  0.0000)
  12 Li     0.000000    3.234074   11.617037    ( 0.0000,  0.0000,  0.0000)
  13 Li     3.234074    3.234074   11.617037    ( 0.0000,  0.0000,  0.0000)
  14 Li     6.468148    3.234074   11.617037    ( 0.0000,  0.0000,  0.0000)
  15 Li     0.000000    6.468148   11.617037    ( 0.0000,  0.0000,  0.0000)
  16 Li     3.234074    6.468148   11.617037    ( 0.0000,  0.0000,  0.0000)
  17 Li     6.468148    6.468148   11.617037    ( 0.0000,  0.0000,  0.0000)
  18 Li     1.870771    1.620539   13.199616    ( 0.0000,  0.0000,  0.0000)
  19 Li     4.851111    1.617521   13.460479    ( 0.0000,  0.0000,  0.0000)
  20 Li     7.831451    1.620539   13.199616    ( 0.0000,  0.0000,  0.0000)
  21 Li     1.733751    4.948335   13.404415    ( 0.0000,  0.0000,  0.0000)
  22 Li     4.851111    4.855933   13.438838    ( 0.0000,  0.0000,  0.0000)
  23 Li     7.968471    4.948335   13.404415    ( 0.0000,  0.0000,  0.0000)
  24 Li     1.733951    7.985125   13.405194    ( 0.0000,  0.0000,  0.0000)
  25 Li     4.851111    8.080555   13.439136    ( 0.0000,  0.0000,  0.0000)
  26 Li     7.968271    7.985125   13.405194    ( 0.0000,  0.0000,  0.0000)
  27 Li     0.000000    0.256129   14.473612    ( 0.0000,  0.0000,  0.0000)
  28 Li     3.270033   -0.028689   15.373390    ( 0.0000,  0.0000,  0.0000)
  29 Li     6.432189   -0.028689   15.373390    ( 0.0000,  0.0000,  0.0000)
  30 Li     0.000000    2.987118   14.481771    ( 0.0000,  0.0000,  0.0000)
  31 Li     3.271238    3.262713   15.374307    ( 0.0000,  0.0000,  0.0000)
  32 Li     6.430984    3.262713   15.374307    ( 0.0000,  0.0000,  0.0000)
  33 Li     0.000000    6.469096   15.257113    ( 0.0000,  0.0000,  0.0000)
  34 Li     3.306769    6.467390   15.408410    ( 0.0000,  0.0000,  0.0000)
  35 Li     6.395453    6.467390   15.408410    ( 0.0000,  0.0000,  0.0000)
  36 N     -0.000000    1.632697   13.087534    ( 0.0000,  0.0000,  0.0000)

Unit cell:
           periodic     x           y           z      points  spacing
  1. axis:    yes    9.702222    0.000000    0.000000    60     0.1617
  2. axis:    yes    0.000000    9.702222    0.000000    60     0.1617
  3. axis:    no     0.000000    0.000000   24.851111   156     0.1593

  Lengths:   9.702222   9.702222  24.851111
  Angles:   90.000000  90.000000  90.000000

Effective grid spacing dv^(1/3) = 0.1609

     iter     time        total  log10-change:
                         energy  eigst   dens
iter:   1 14:53:57   -73.105794
iter:   2 14:58:57   -70.581665  +0.49  -0.54
iter:   3 15:03:41   -67.683100  +1.06  -0.62
iter:   4 15:10:04   -67.125587  +1.28  -0.76
iter:   5 15:15:28   -67.409098  +0.76  -0.91
iter:   6 15:21:42   -68.210343  +0.03  -0.95
iter:   7 15:27:53   -67.418003  +0.73  -0.89
iter:   8 15:33:53   -67.623831  +0.60  -1.30
iter:   9 15:39:26   -67.357795  -0.80  -1.21
iter:  10 15:44:31   -67.358866  -0.97  -1.44
iter:  11 15:50:46   -67.360342c -0.99  -1.49
iter:  12 15:57:42   -67.335659  -0.75  -1.57
iter:  13 16:03:47   -67.335907  -1.27  -1.91
iter:  14 16:10:37   -67.336366c -1.28  -2.01
iter:  15 16:18:30   -67.338052c -1.52  -2.16
iter:  16 16:25:11   -67.339034c -1.82  -2.38
iter:  17 16:32:08   -67.339660c -2.08  -2.45
iter:  18 16:38:47   -67.340259c -2.15  -2.57
iter:  19 16:45:10   -67.340761c -2.24  -2.66
iter:  20 16:50:57   -67.341118c -2.45  -2.71
iter:  21 16:55:50   -67.341413c -2.50  -2.73
iter:  22 17:00:13   -67.341670c -2.60  -2.85
iter:  23 17:04:44   -67.341862c -2.80  -2.97
iter:  24 17:09:12   -67.342056c -2.85  -3.02
iter:  25 17:14:26   -67.342214c -2.88  -3.16
iter:  26 17:20:46   -67.342341c -2.90  -3.19
iter:  27 17:26:38   -67.342499c -2.99  -3.22
iter:  28 17:33:00   -67.342550c -3.23  -3.35
iter:  29 17:39:04   -67.342605c -3.34  -3.44
iter:  30 17:45:39   -67.342683c -3.16  -3.50
iter:  31 17:51:22   -67.342737c -3.29  -3.54
iter:  32 17:57:23   -67.342757c -3.60  -3.77
iter:  33 18:03:32   -67.342779c -3.71  -3.78
iter:  34 18:09:31   -67.342795c -3.51  -3.74
iter:  35 18:15:26   -67.342812c -3.84  -3.54
iter:  36 18:20:25   -67.342825c -3.80  -3.54
iter:  37 18:25:51   -67.342835c -3.91  -3.50
iter:  38 18:31:31   -67.342845c -4.03  -3.47
iter:  39 18:37:24   -67.342861c -3.94  -3.51
iter:  40 18:44:12   -67.342861c -4.15  -3.65
iter:  41 18:50:18   -67.342868c -4.34  -3.57
iter:  42 18:56:06   -67.342879c -3.95  -3.56
iter:  43 19:01:52   -67.342875c -4.39  -3.63
iter:  44 19:08:42   -67.342880c -4.46  -3.47
iter:  45 19:15:17   -67.342889c -4.22  -3.66
iter:  46 19:20:56   -67.342888c -4.42  -3.79
iter:  47 19:25:16   -67.342891c -4.48  -3.88
iter:  48 19:30:00   -67.342894c -4.63  -3.95
iter:  49 19:33:53   -67.342894c -4.59  -3.99
iter:  50 19:37:54   -67.342894c -4.79  -4.17c
iter:  51 19:42:38   -67.342894c -4.65  -4.19c
iter:  52 19:46:37   -67.342894c -4.78  -4.32c
iter:  53 19:50:05   -67.342894c -4.87  -4.55c
iter:  54 19:53:50   -67.342895c -4.78  -4.64c
iter:  55 19:57:46   -67.342896c -4.61  -4.70c
iter:  56 20:02:57   -67.342896c -4.84  -4.93c
iter:  57 20:07:43   -67.342895c -4.87  -4.98c
iter:  58 20:14:33   -67.342895c -5.10  -5.03c
iter:  59 20:21:21   -67.342895c -5.27  -5.22c
iter:  60 20:28:08   -67.342895c -5.19  -5.22c
iter:  61 20:32:48   -67.342895c -5.23  -5.18c
iter:  62 20:37:30   -67.342894c -5.21  -5.06c
iter:  63 20:43:07   -67.342894c -5.32  -5.15c
iter:  64 20:47:44   -67.342894c -5.38  -5.23c
iter:  65 20:53:12   -67.342894c -5.28  -5.25c
iter:  66 20:57:44   -67.342894c -5.40  -5.19c
iter:  67 21:02:53   -67.342894c -5.66  -5.14c
iter:  68 21:07:44   -67.342894c -5.67  -5.05c
iter:  69 21:12:52   -67.342893c -5.58  -4.99c
iter:  70 21:17:30   -67.342893c -5.70  -4.97c
iter:  71 21:22:18   -67.342893c -5.67  -5.07c
iter:  72 21:25:38   -67.342893c -5.62  -4.85c
iter:  73 21:28:56   -67.342893c -5.79  -4.98c
iter:  74 21:32:59   -67.342893c -5.83  -4.87c
iter:  75 21:37:39   -67.342893c -5.91  -4.91c
iter:  76 21:43:06   -67.342893c -6.30  -5.17c
iter:  77 21:48:14   -67.342893c -6.23  -4.96c
iter:  78 21:53:46   -67.342893c -6.21  -5.32c
iter:  79 21:58:40   -67.342893c -5.95  -5.39c
iter:  80 22:04:16   -67.342893c -6.13  -5.47c
iter:  81 22:09:23   -67.342893c -6.26  -5.53c
iter:  82 22:14:22   -67.342893c -6.23  -5.76c
iter:  83 22:19:41   -67.342893c -6.21  -5.87c
iter:  84 22:25:27   -67.342893c -6.35  -5.99c
iter:  85 22:30:50   -67.342893c -6.29  -6.03c
iter:  86 22:35:39   -67.342893c -6.44  -6.09c
iter:  87 22:41:08   -67.342893c -6.55  -6.08c
iter:  88 22:46:13   -67.342893c -6.65  -6.36c
iter:  89 22:51:09   -67.342893c -6.81  -6.32c
iter:  90 22:55:51   -67.342893c -6.83  -6.46c
iter:  91 23:00:44   -67.342893c -6.75  -6.59c
iter:  92 23:07:14   -67.342893c -6.90  -6.73c
iter:  93 23:13:29   -67.342893c -6.88  -6.72c
iter:  94 23:19:41   -67.342893c -6.81  -6.57c
iter:  95 23:25:28   -67.342893c -6.90  -6.49c
iter:  96 23:32:11   -67.342893c -6.97  -6.45c
iter:  97 23:37:47   -67.342893c -6.95  -6.35c
iter:  98 23:44:06   -67.342893c -6.93  -6.31c
iter:  99 23:50:25   -67.342893c -7.15  -6.28c
iter: 100 23:56:56   -67.342893c -7.04  -6.20c
iter: 101 00:02:46   -67.342893c -7.13  -6.22c
iter: 102 00:09:20   -67.342893c -7.24  -6.07c
iter: 103 00:15:56   -67.342893c -7.38  -6.16c
iter: 104 00:20:58   -67.342893c -7.20  -6.14c
iter: 105 00:25:20   -67.342893c -7.43c -6.14c

Converged after 105 iterations.

Dipole moment: (-7.083992, -4.197279, 0.053536) |e|*Ang

Energy contributions relative to reference atoms: (reference = -8815.035974)

Kinetic:        +80.763108
Potential:      -67.431204
External:        +0.000000
XC:             -80.635651
Entropy (-ST):   -0.137132
Local:           +0.029420
--------------------------
Free energy:    -67.411459
Extrapolated:   -67.342893

Dipole-layer corrected work functions: 3.149342, 3.046428 eV

Showing only first 2 kpts
 Kpt  Band  Eigenvalues  Occupancy
  0    18     -3.35584    1.98857
  0    19     -3.24632    1.90228
  0    20     -3.13160    1.32495
  0    21     -3.02452    0.37470

  1    18     -3.45980    1.99856
  1    19     -3.27044    1.93853
  1    20     -3.08760    0.89748
  1    21     -2.99864    0.24159


Fermi level: -3.09788

No gap

Forces in eV/Ang:
  0 Li   -0.01476   -0.00019   -0.40507
  1 Li   -0.00000    0.00012   -0.26622
  2 Li    0.01476   -0.00019   -0.40507
  3 Li   -0.00327    0.00176   -0.36281
  4 Li    0.00000    0.03291   -0.35012
  5 Li    0.00327    0.00176   -0.36281
  6 Li   -0.00366   -0.00090   -0.36184
  7 Li    0.00000   -0.03286   -0.35050
  8 Li    0.00366   -0.00090   -0.36184
  9 Li    0.00000    0.57944    0.74936
 10 Li    0.18974   -0.15099    0.12944
 11 Li   -0.18974   -0.15099    0.12944
 12 Li   -0.00000   -0.56629    0.75016
 13 Li    0.19348    0.15170    0.12516
 14 Li   -0.19348    0.15170    0.12516
 15 Li   -0.00000    0.00292    0.26632
 16 Li    0.11481   -0.00047    0.10611
 17 Li   -0.11481   -0.00047    0.10611
 18 Li    0.05430   -0.00066    0.05489
 19 Li    0.00000    0.00024    0.02577
 20 Li   -0.05430   -0.00066    0.05489
 21 Li   -0.01435   -0.00112    0.00571
 22 Li    0.00000    0.00920    0.02728
 23 Li    0.01435   -0.00112    0.00571
 24 Li   -0.01440    0.00002    0.00612
 25 Li   -0.00000   -0.00971    0.02742
 26 Li    0.01440    0.00002    0.00612
 27 Li   -0.00000   -0.04583    0.08272
 28 Li   -0.00606   -0.00591    0.06302
 29 Li    0.00606   -0.00591    0.06302
 30 Li   -0.00000    0.06708    0.10051
 31 Li   -0.00513    0.00597    0.06435
 32 Li    0.00513    0.00597    0.06435
 33 Li   -0.00000    0.00095    0.10309
 34 Li   -0.01953   -0.00046    0.07745
 35 Li    0.01953   -0.00046    0.07745
 36 N    -0.00000   -0.00218   -0.15108

System changes: positions 

Initializing position-dependent things.

Density initialized from wave functions
       .-----------------------.  
      /|                       |  
     / |                       |  
    /  |                       |  
   /   |                       |  
  /    |                       |  
 *     |                       |  
 |     |                       |  
 |     |                       |  
 |     |                       |  
 |     |                       |  
 |     |                       |  
 |     |       Li      Li      |  
 |     |                       |  
 |   Li|     Li      Li        |  
 |     |  Li      Li      Li   |  
 |     |   Li      Li          |  
 | Li  |Li      Li      Li     |  
 |     |                       |  
 Li  Li|     LLi     Li        |  
 |     Li Li      Li Li   Ni   |  
 | Li  |   Li      Li          |  
 |     |Li      Li      Li     |  
 Li    | Li      Li            |  
 |    Li      Li      Li       |  
 |     |                       |  
 |     |                       |  
 |     |                       |  
 |     |                       |  
 |     |                       |  
 |     |                       |  
 |     .-----------------------.  
 |    /                       /   
 |   /                       /    
 |  /                       /     
 | /                       /      
 |/                       /       
 *-----------------------*        

Positions:
   0 Li     1.617037    1.617037   10.000000    ( 0.0000,  0.0000,  0.0000)
   1 Li     4.851111    1.617037   10.000000    ( 0.0000,  0.0000,  0.0000)
   2 Li     8.085185    1.617037   10.000000    ( 0.0000,  0.0000,  0.0000)
   3 Li     1.617037    4.851111   10.000000    ( 0.0000,  0.0000,  0.0000)
   4 Li     4.851111    4.851111   10.000000    ( 0.0000,  0.0000,  0.0000)
   5 Li     8.085185    4.851111   10.000000    ( 0.0000,  0.0000,  0.0000)
   6 Li     1.617037    8.085185   10.000000    ( 0.0000,  0.0000,  0.0000)
   7 Li     4.851111    8.085185   10.000000    ( 0.0000,  0.0000,  0.0000)
   8 Li     8.085185    8.085185   10.000000    ( 0.0000,  0.0000,  0.0000)
   9 Li     0.000000    0.000000   11.617037    ( 0.0000,  0.0000,  0.0000)
  10 Li     3.234074    0.000000   11.617037    ( 0.0000,  0.0000,  0.0000)
  11 Li     6.468148    0.000000   11.617037    ( 0.0000,  0.0000,  0.0000)
  12 Li     0.000000    3.234074   11.617037    ( 0.0000,  0.0000,  0.0000)
  13 Li     3.234074    3.234074   11.617037    ( 0.0000,  0.0000,  0.0000)
  14 Li     6.468148    3.234074   11.617037    ( 0.0000,  0.0000,  0.0000)
  15 Li     0.000000    6.468148   11.617037    ( 0.0000,  0.0000,  0.0000)
  16 Li     3.234074    6.468148   11.617037    ( 0.0000,  0.0000,  0.0000)
  17 Li     6.468148    6.468148   11.617037    ( 0.0000,  0.0000,  0.0000)
  18 Li     1.870771    1.620539   13.199616    ( 0.0000,  0.0000,  0.0000)
  19 Li     4.851111    1.617521   13.460479    ( 0.0000,  0.0000,  0.0000)
  20 Li     7.831451    1.620539   13.199616    ( 0.0000,  0.0000,  0.0000)
  21 Li     1.733751    4.948335   13.404415    ( 0.0000,  0.0000,  0.0000)
  22 Li     4.851111    4.855933   13.438838    ( 0.0000,  0.0000,  0.0000)
  23 Li     7.968471    4.948335   13.404415    ( 0.0000,  0.0000,  0.0000)
  24 Li     1.733951    7.985125   13.405194    ( 0.0000,  0.0000,  0.0000)
  25 Li     4.851111    8.080555   13.439136    ( 0.0000,  0.0000,  0.0000)
  26 Li     7.968271    7.985125   13.405194    ( 0.0000,  0.0000,  0.0000)
  27 Li     0.000000    0.256129   14.473612    ( 0.0000,  0.0000,  0.0000)
  28 Li     3.270033   -0.028689   15.373390    ( 0.0000,  0.0000,  0.0000)
  29 Li     6.432189   -0.028689   15.373390    ( 0.0000,  0.0000,  0.0000)
  30 Li     0.000000    2.987118   14.481771    ( 0.0000,  0.0000,  0.0000)
  31 Li     3.271238    3.262713   15.374307    ( 0.0000,  0.0000,  0.0000)
  32 Li     6.430984    3.262713   15.374307    ( 0.0000,  0.0000,  0.0000)
  33 Li     0.000000    6.469096   15.257113    ( 0.0000,  0.0000,  0.0000)
  34 Li     3.306769    6.467390   15.408410    ( 0.0000,  0.0000,  0.0000)
  35 Li     6.395453    6.467390   15.408410    ( 0.0000,  0.0000,  0.0000)
  36 N     -0.010000    1.632697   13.087534    ( 0.0000,  0.0000,  0.0000)

Unit cell:
           periodic     x           y           z      points  spacing
  1. axis:    yes    9.702222    0.000000    0.000000    60     0.1617
  2. axis:    yes    0.000000    9.702222    0.000000    60     0.1617
  3. axis:    no     0.000000    0.000000   24.851111   156     0.1593

  Lengths:   9.702222   9.702222  24.851111
  Angles:   90.000000  90.000000  90.000000

Effective grid spacing dv^(1/3) = 0.1609

     iter     time        total  log10-change:
                         energy  eigst   dens
iter:   1 00:29:53   -67.342800  -2.72
iter:   2 00:35:18   -67.342644  -3.57  -2.70
iter:   3 00:40:27   -67.342406c -3.17  -2.82
iter:   4 00:45:09   -67.342377c -3.82  -2.95
iter:   5 00:49:31   -67.342384c -3.37  -3.22
iter:   6 00:55:01   -67.342376c -3.44  -3.09
iter:   7 00:59:37   -67.342368c -4.01  -3.28
iter:   8 01:01:51   -67.342346c -4.66  -3.23
iter:   9 01:02:22   -67.342346c -4.45  -3.64
iter:  10 01:02:51   -67.342349c -4.37  -3.63
iter:  11 01:03:19   -67.342342c -4.75  -3.69
iter:  12 01:03:44   -67.342342c -5.37  -4.23c
iter:  13 01:04:11   -67.342343c -5.79  -4.29c
iter:  14 01:04:40   -67.342343c -5.69  -4.18c
iter:  15 01:05:07   -67.342343c -5.81  -4.32c
iter:  16 01:05:35   -67.342343c -6.37  -4.51c
iter:  17 01:06:03   -67.342343c -6.45  -4.71c
iter:  18 01:06:31   -67.342343c -6.76  -4.98c
iter:  19 01:06:58   -67.342343c -6.92  -5.02c
iter:  20 01:07:25   -67.342343c -6.93  -5.01c
iter:  21 01:07:52   -67.342343c -7.19  -5.17c
iter:  22 01:08:17   -67.342343c -7.09  -5.23c
iter:  23 01:08:43   -67.342343c -7.34  -5.31c
iter:  24 01:09:11   -67.342343c -7.47c -5.55c

Converged after 24 iterations.

Dipole moment: (-6.072260, -4.197266, 0.053540) |e|*Ang

Energy contributions relative to reference atoms: (reference = -8815.035974)

Kinetic:        +80.766394
Potential:      -67.433575
External:        +0.000000
XC:             -80.636051
Entropy (-ST):   -0.137132
Local:           +0.029456
--------------------------
Free energy:    -67.410909
Extrapolated:   -67.342343

Dipole-layer corrected work functions: 3.149347, 3.046425 eV

Showing only first 2 kpts
 Kpt  Band  Eigenvalues  Occupancy
  0    18     -3.35583    1.98857
  0    19     -3.24633    1.90230
  0    20     -3.13162    1.32509
  0    21     -3.02453    0.37477

  1    18     -3.45981    1.99856
  1    19     -3.27044    1.93852
  1    20     -3.08760    0.89746
  1    21     -2.99863    0.24153


Fermi level: -3.09789

No gap

Forces in eV/Ang:
  0 Li   -0.01417   -0.00019   -0.40674
  1 Li    0.00012    0.00012   -0.26623
  2 Li    0.01535   -0.00018   -0.40340
  3 Li   -0.00334    0.00136   -0.36209
  4 Li    0.00038    0.03291   -0.35012
  5 Li    0.00321    0.00216   -0.36353
  6 Li   -0.00372   -0.00050   -0.36114
  7 Li    0.00037   -0.03286   -0.35051
  8 Li    0.00360   -0.00130   -0.36255
  9 Li   -0.00429    0.57944    0.74937
 10 Li    0.19027   -0.15134    0.12910
 11 Li   -0.18917   -0.15061    0.12980
 12 Li   -0.00428   -0.56630    0.75017
 13 Li    0.19407    0.15206    0.12480
 14 Li   -0.19285    0.15132    0.12554
 15 Li   -0.00018    0.00292    0.26633
 16 Li    0.11479   -0.00048    0.10588
 17 Li   -0.11483   -0.00046    0.10634
 18 Li    0.00123   -0.00030    0.05088
 19 Li   -0.00125    0.00024    0.02577
 20 Li   -0.11031   -0.00105    0.05913
 21 Li   -0.01355   -0.00042    0.00600
 22 Li   -0.00045    0.00920    0.02729
 23 Li    0.01516   -0.00184    0.00542
 24 Li   -0.01363   -0.00057    0.00639
 25 Li   -0.00041   -0.00971    0.02742
 26 Li    0.01518    0.00063    0.00584
 27 Li   -0.00304   -0.04576    0.08265
 28 Li   -0.00648   -0.00565    0.06289
 29 Li    0.00567   -0.00615    0.06314
 30 Li   -0.00284    0.06701    0.10045
 31 Li   -0.00552    0.00572    0.06423
 32 Li    0.00476    0.00621    0.06446
 33 Li    0.00005    0.00095    0.10309
 34 Li   -0.01955   -0.00047    0.07774
 35 Li    0.01951   -0.00045    0.07717
 36 N     0.11290   -0.00465   -0.16284

System changes: positions 

Initializing position-dependent things.

Density initialized from wave functions
       .-----------------------.  
      /|                       |  
     / |                       |  
    /  |                       |  
   /   |                       |  
  /    |                       |  
 *     |                       |  
 |     |                       |  
 |     |                       |  
 |     |                       |  
 |     |                       |  
 |     |                       |  
 |     |       Li      Li      |  
 |     |                       |  
 |   Li|     Li      Li        |  
 |     |  Li      Li      Li   |  
 |     |   Li      Li          |  
 | Li  |Li      Li      Li     |  
 |     |                       |  
 Li  Li|     LLi     Li        |  
 |N    Li Li      Li Li   Li   |  
 | Li  |   Li      Li          |  
 |     |Li      Li      Li     |  
 Li    | Li      Li            |  
 |    Li      Li      Li       |  
 |     |                       |  
 |     |                       |  
 |     |                       |  
 |     |                       |  
 |     |                       |  
 |     |                       |  
 |     .-----------------------.  
 |    /                       /   
 |   /                       /    
 |  /                       /     
 | /                       /      
 |/                       /       
 *-----------------------*        

Positions:
   0 Li     1.617037    1.617037   10.000000    ( 0.0000,  0.0000,  0.0000)
   1 Li     4.851111    1.617037   10.000000    ( 0.0000,  0.0000,  0.0000)
   2 Li     8.085185    1.617037   10.000000    ( 0.0000,  0.0000,  0.0000)
   3 Li     1.617037    4.851111   10.000000    ( 0.0000,  0.0000,  0.0000)
   4 Li     4.851111    4.851111   10.000000    ( 0.0000,  0.0000,  0.0000)
   5 Li     8.085185    4.851111   10.000000    ( 0.0000,  0.0000,  0.0000)
   6 Li     1.617037    8.085185   10.000000    ( 0.0000,  0.0000,  0.0000)
   7 Li     4.851111    8.085185   10.000000    ( 0.0000,  0.0000,  0.0000)
   8 Li     8.085185    8.085185   10.000000    ( 0.0000,  0.0000,  0.0000)
   9 Li     0.000000    0.000000   11.617037    ( 0.0000,  0.0000,  0.0000)
  10 Li     3.234074    0.000000   11.617037    ( 0.0000,  0.0000,  0.0000)
  11 Li     6.468148    0.000000   11.617037    ( 0.0000,  0.0000,  0.0000)
  12 Li     0.000000    3.234074   11.617037    ( 0.0000,  0.0000,  0.0000)
  13 Li     3.234074    3.234074   11.617037    ( 0.0000,  0.0000,  0.0000)
  14 Li     6.468148    3.234074   11.617037    ( 0.0000,  0.0000,  0.0000)
  15 Li     0.000000    6.468148   11.617037    ( 0.0000,  0.0000,  0.0000)
  16 Li     3.234074    6.468148   11.617037    ( 0.0000,  0.0000,  0.0000)
  17 Li     6.468148    6.468148   11.617037    ( 0.0000,  0.0000,  0.0000)
  18 Li     1.870771    1.620539   13.199616    ( 0.0000,  0.0000,  0.0000)
  19 Li     4.851111    1.617521   13.460479    ( 0.0000,  0.0000,  0.0000)
  20 Li     7.831451    1.620539   13.199616    ( 0.0000,  0.0000,  0.0000)
  21 Li     1.733751    4.948335   13.404415    ( 0.0000,  0.0000,  0.0000)
  22 Li     4.851111    4.855933   13.438838    ( 0.0000,  0.0000,  0.0000)
  23 Li     7.968471    4.948335   13.404415    ( 0.0000,  0.0000,  0.0000)
  24 Li     1.733951    7.985125   13.405194    ( 0.0000,  0.0000,  0.0000)
  25 Li     4.851111    8.080555   13.439136    ( 0.0000,  0.0000,  0.0000)
  26 Li     7.968271    7.985125   13.405194    ( 0.0000,  0.0000,  0.0000)
  27 Li     0.000000    0.256129   14.473612    ( 0.0000,  0.0000,  0.0000)
  28 Li     3.270033   -0.028689   15.373390    ( 0.0000,  0.0000,  0.0000)
  29 Li     6.432189   -0.028689   15.373390    ( 0.0000,  0.0000,  0.0000)
  30 Li     0.000000    2.987118   14.481771    ( 0.0000,  0.0000,  0.0000)
  31 Li     3.271238    3.262713   15.374307    ( 0.0000,  0.0000,  0.0000)
  32 Li     6.430984    3.262713   15.374307    ( 0.0000,  0.0000,  0.0000)
  33 Li     0.000000    6.469096   15.257113    ( 0.0000,  0.0000,  0.0000)
  34 Li     3.306769    6.467390   15.408410    ( 0.0000,  0.0000,  0.0000)
  35 Li     6.395453    6.467390   15.408410    ( 0.0000,  0.0000,  0.0000)
  36 N      0.010000    1.632697   13.087534    ( 0.0000,  0.0000,  0.0000)

Unit cell:
           periodic     x           y           z      points  spacing
  1. axis:    yes    9.702222    0.000000    0.000000    60     0.1617
  2. axis:    yes    0.000000    9.702222    0.000000    60     0.1617
  3. axis:    no     0.000000    0.000000   24.851111   156     0.1593

  Lengths:   9.702222   9.702222  24.851111
  Angles:   90.000000  90.000000  90.000000

Effective grid spacing dv^(1/3) = 0.1609

     iter     time        total  log10-change:
                         energy  eigst   dens
iter:   1 01:09:46   -67.344177  -2.12
iter:   2 01:10:16   -67.343549  -2.96  -2.40
iter:   3 01:10:39   -67.342579c -2.41  -2.51
iter:   4 01:10:55   -67.342465c -3.27  -2.66
iter:   5 01:11:19   -67.342484c -2.79  -2.92
iter:   6 01:11:43   -67.342445c -2.86  -2.82
iter:   7 01:12:06   -67.342421c -3.40  -3.02
iter:   8 01:12:27   -67.342357c -4.12  -2.97
iter:   9 01:12:53   -67.342354c -3.92  -3.35
iter:  10 01:13:18   -67.342358c -3.88  -3.37
iter:  11 01:13:44   -67.342341c -4.32  -3.49
iter:  12 01:14:08   -67.342342c -5.00  -3.96
iter:  13 01:14:33   -67.342343c -5.28  -3.99
iter:  14 01:14:52   -67.342342c -5.11  -3.90
iter:  15 01:15:15   -67.342342c -5.61  -4.03c
iter:  16 01:15:40   -67.342342c -5.68  -4.26c
iter:  17 01:16:04   -67.342343c -5.61  -4.32c
iter:  18 01:16:28   -67.342343c -5.89  -4.29c
iter:  19 01:16:53   -67.342343c -6.35  -4.64c
iter:  20 01:17:19   -67.342343c -6.37  -4.68c
iter:  21 01:17:43   -67.342343c -6.26  -4.75c
iter:  22 01:18:09   -67.342343c -6.49  -4.72c
iter:  23 01:18:36   -67.342343c -6.90  -4.77c
iter:  24 01:19:01   -67.342343c -6.64  -4.84c
iter:  25 01:19:27   -67.342343c -6.88  -5.10c
iter:  26 01:19:51   -67.342343c -7.16  -5.05c
iter:  27 01:20:21   -67.342343c -7.13  -5.37c
iter:  28 01:20:55   -67.342343c -7.36  -5.48c
iter:  29 01:21:22   -67.342343c -7.14  -5.43c
iter:  30 01:21:53   -67.342343c -7.50c -5.54c

Converged after 30 iterations.

Dipole moment: (-8.059900, -4.197266, 0.053540) |e|*Ang

Energy contributions relative to reference atoms: (reference = -8815.035974)

Kinetic:        +80.766396
Potential:      -67.433576
External:        +0.000000
XC:             -80.636053
Entropy (-ST):   -0.137132
Local:           +0.029456
--------------------------
Free energy:    -67.410909
Extrapolated:   -67.342343

Dipole-layer corrected work functions: 3.149346, 3.046425 eV

Showing only first 2 kpts
 Kpt  Band  Eigenvalues  Occupancy
  0    18     -3.35584    1.98857
  0    19     -3.24635    1.90233
  0    20     -3.13157    1.32462
  0    21     -3.02450    0.37458

  1    18     -3.45978    1.99856
  1    19     -3.27044    1.93852
  1    20     -3.08760    0.89753
  1    21     -2.99865    0.24164


Fermi level: -3.09789

No gap

Forces in eV/Ang:
  0 Li   -0.01535   -0.00018   -0.40339
  1 Li   -0.00011    0.00012   -0.26623
  2 Li    0.01416   -0.00019   -0.40674
  3 Li   -0.00321    0.00217   -0.36352
  4 Li   -0.00039    0.03291   -0.35012
  5 Li    0.00334    0.00135   -0.36209
  6 Li   -0.00360   -0.00131   -0.36254
  7 Li   -0.00038   -0.03286   -0.35051
  8 Li    0.00372   -0.00050   -0.36114
  9 Li    0.00429    0.57944    0.74937
 10 Li    0.18916   -0.15061    0.12981
 11 Li   -0.19028   -0.15134    0.12910
 12 Li    0.00427   -0.56630    0.75017
 13 Li    0.19285    0.15132    0.12555
 14 Li   -0.19408    0.15206    0.12479
 15 Li    0.00019    0.00292    0.26633
 16 Li    0.11482   -0.00046    0.10634
 17 Li   -0.11480   -0.00048    0.10587
 18 Li    0.11034   -0.00105    0.05913
 19 Li    0.00124    0.00024    0.02577
 20 Li   -0.00120   -0.00030    0.05088
 21 Li   -0.01517   -0.00185    0.00541
 22 Li    0.00045    0.00920    0.02729
 23 Li    0.01354   -0.00042    0.00601
 24 Li   -0.01518    0.00063    0.00583
 25 Li    0.00042   -0.00971    0.02742
 26 Li    0.01363   -0.00057    0.00640
 27 Li    0.00303   -0.04576    0.08265
 28 Li   -0.00567   -0.00615    0.06313
 29 Li    0.00647   -0.00566    0.06290
 30 Li    0.00283    0.06701    0.10045
 31 Li   -0.00476    0.00620    0.06445
 32 Li    0.00552    0.00572    0.06424
 33 Li   -0.00006    0.00095    0.10309
 34 Li   -0.01951   -0.00045    0.07717
 35 Li    0.01956   -0.00047    0.07774
 36 N    -0.11336   -0.00465   -0.16285

System changes: positions 

Initializing position-dependent things.

Density initialized from wave functions
       .-----------------------.  
      /|                       |  
     / |                       |  
    /  |                       |  
   /   |                       |  
  /    |                       |  
 *     |                       |  
 |     |                       |  
 |     |                       |  
 |     |                       |  
 |     |                       |  
 |     |                       |  
 |     |       Li      Li      |  
 |     |                       |  
 |   Li|     Li      Li        |  
 |     |  Li      Li      Li   |  
 |     |   Li      Li          |  
 | Li  |Li      Li      Li     |  
 |     |                       |  
 Li  Li|     LLi     Li        |  
 |N    Li Li      Li Li   Li   |  
 | Li  |   Li      Li          |  
 |     |Li      Li      Li     |  
 Li    | Li      Li            |  
 |    Li      Li      Li       |  
 |     |                       |  
 |     |                       |  
 |     |                       |  
 |     |                       |  
 |     |                       |  
 |     |                       |  
 |     .-----------------------.  
 |    /                       /   
 |   /                       /    
 |  /                       /     
 | /                       /      
 |/                       /       
 *-----------------------*        

Positions:
   0 Li     1.617037    1.617037   10.000000    ( 0.0000,  0.0000,  0.0000)
   1 Li     4.851111    1.617037   10.000000    ( 0.0000,  0.0000,  0.0000)
   2 Li     8.085185    1.617037   10.000000    ( 0.0000,  0.0000,  0.0000)
   3 Li     1.617037    4.851111   10.000000    ( 0.0000,  0.0000,  0.0000)
   4 Li     4.851111    4.851111   10.000000    ( 0.0000,  0.0000,  0.0000)
   5 Li     8.085185    4.851111   10.000000    ( 0.0000,  0.0000,  0.0000)
   6 Li     1.617037    8.085185   10.000000    ( 0.0000,  0.0000,  0.0000)
   7 Li     4.851111    8.085185   10.000000    ( 0.0000,  0.0000,  0.0000)
   8 Li     8.085185    8.085185   10.000000    ( 0.0000,  0.0000,  0.0000)
   9 Li     0.000000    0.000000   11.617037    ( 0.0000,  0.0000,  0.0000)
  10 Li     3.234074    0.000000   11.617037    ( 0.0000,  0.0000,  0.0000)
  11 Li     6.468148    0.000000   11.617037    ( 0.0000,  0.0000,  0.0000)
  12 Li     0.000000    3.234074   11.617037    ( 0.0000,  0.0000,  0.0000)
  13 Li     3.234074    3.234074   11.617037    ( 0.0000,  0.0000,  0.0000)
  14 Li     6.468148    3.234074   11.617037    ( 0.0000,  0.0000,  0.0000)
  15 Li     0.000000    6.468148   11.617037    ( 0.0000,  0.0000,  0.0000)
  16 Li     3.234074    6.468148   11.617037    ( 0.0000,  0.0000,  0.0000)
  17 Li     6.468148    6.468148   11.617037    ( 0.0000,  0.0000,  0.0000)
  18 Li     1.870771    1.620539   13.199616    ( 0.0000,  0.0000,  0.0000)
  19 Li     4.851111    1.617521   13.460479    ( 0.0000,  0.0000,  0.0000)
  20 Li     7.831451    1.620539   13.199616    ( 0.0000,  0.0000,  0.0000)
  21 Li     1.733751    4.948335   13.404415    ( 0.0000,  0.0000,  0.0000)
  22 Li     4.851111    4.855933   13.438838    ( 0.0000,  0.0000,  0.0000)
  23 Li     7.968471    4.948335   13.404415    ( 0.0000,  0.0000,  0.0000)
  24 Li     1.733951    7.985125   13.405194    ( 0.0000,  0.0000,  0.0000)
  25 Li     4.851111    8.080555   13.439136    ( 0.0000,  0.0000,  0.0000)
  26 Li     7.968271    7.985125   13.405194    ( 0.0000,  0.0000,  0.0000)
  27 Li     0.000000    0.256129   14.473612    ( 0.0000,  0.0000,  0.0000)
  28 Li     3.270033   -0.028689   15.373390    ( 0.0000,  0.0000,  0.0000)
  29 Li     6.432189   -0.028689   15.373390    ( 0.0000,  0.0000,  0.0000)
  30 Li     0.000000    2.987118   14.481771    ( 0.0000,  0.0000,  0.0000)
  31 Li     3.271238    3.262713   15.374307    ( 0.0000,  0.0000,  0.0000)
  32 Li     6.430984    3.262713   15.374307    ( 0.0000,  0.0000,  0.0000)
  33 Li     0.000000    6.469096   15.257113    ( 0.0000,  0.0000,  0.0000)
  34 Li     3.306769    6.467390   15.408410    ( 0.0000,  0.0000,  0.0000)
  35 Li     6.395453    6.467390   15.408410    ( 0.0000,  0.0000,  0.0000)
  36 N     -0.000000    1.622697   13.087534    ( 0.0000,  0.0000,  0.0000)

Unit cell:
           periodic     x           y           z      points  spacing
  1. axis:    yes    9.702222    0.000000    0.000000    60     0.1617
  2. axis:    yes    0.000000    9.702222    0.000000    60     0.1617
  3. axis:    no     0.000000    0.000000   24.851111   156     0.1593

  Lengths:   9.702222   9.702222  24.851111
  Angles:   90.000000  90.000000  90.000000

Effective grid spacing dv^(1/3) = 0.1609

     iter     time        total  log10-change:
                         energy  eigst   dens
iter:   1 01:22:50   -67.343982  -2.45
iter:   2 01:23:16   -67.343632  -3.20  -2.54
iter:   3 01:23:44   -67.343128c -2.64  -2.66
iter:   4 01:24:09   -67.343104c -3.29  -2.80
iter:   5 01:24:28   -67.343090c -3.06  -3.03
iter:   6 01:24:56   -67.343042c -3.09  -2.91
iter:   7 01:25:23   -67.343048c -3.66  -3.14
iter:   8 01:25:49   -67.342991c -4.18  -3.11
iter:   9 01:26:12   -67.342988c -4.28  -3.66
iter:  10 01:26:32   -67.342989c -4.49  -3.81
iter:  11 01:26:59   -67.342990c -5.14  -3.97
iter:  12 01:27:29   -67.342991c -5.42  -4.17c
iter:  13 01:27:59   -67.342991c -5.48  -4.14c
iter:  14 01:28:26   -67.342991c -5.64  -4.14c
iter:  15 01:28:54   -67.342991c -5.90  -4.32c
iter:  16 01:29:23   -67.342991c -5.91  -4.31c
iter:  17 01:29:51   -67.342991c -5.97  -4.39c
iter:  18 01:30:21   -67.342991c -6.25  -4.52c
iter:  19 01:30:48   -67.342991c -6.38  -4.81c
iter:  20 01:31:14   -67.342991c -6.58  -4.88c
iter:  21 01:31:38   -67.342991c -6.55  -4.93c
iter:  22 01:32:00   -67.342991c -6.66  -5.06c
iter:  23 01:32:24   -67.342991c -6.76  -5.13c
iter:  24 01:32:49   -67.342991c -6.96  -5.24c
iter:  25 01:33:13   -67.342991c -7.12  -5.24c
iter:  26 01:33:34   -67.342991c -7.25  -5.38c
iter:  27 01:33:59   -67.342991c -7.21  -5.39c
iter:  28 01:34:24   -67.342991c -7.04  -5.42c
iter:  29 01:34:47   -67.342991c -7.45c -5.50c

Converged after 29 iterations.

Dipole moment: (-7.083988, -4.183403, 0.053541) |e|*Ang

Energy contributions relative to reference atoms: (reference = -8815.035974)

Kinetic:        +80.761901
Potential:      -67.430304
External:        +0.000000
XC:             -80.635613
Entropy (-ST):   -0.137130
Local:           +0.029590
--------------------------
Free energy:    -67.411556
Extrapolated:   -67.342991

Dipole-layer corrected work functions: 3.149347, 3.046422 eV

Showing only first 2 kpts
 Kpt  Band  Eigenvalues  Occupancy
  0    18     -3.35584    1.98857
  0    19     -3.24631    1.90227
  0    20     -3.13162    1.32513
  0    21     -3.02452    0.37471

  1    18     -3.45981    1.99856
  1    19     -3.27044    1.93853
  1    20     -3.08759    0.89742
  1    21     -2.99864    0.24159


Fermi level: -3.09788

No gap

Forces in eV/Ang:
  0 Li   -0.01476    0.00008   -0.40509
  1 Li    0.00000   -0.00002   -0.26622
  2 Li    0.01476    0.00009   -0.40505
  3 Li   -0.00337    0.00146   -0.36237
  4 Li    0.00001    0.03287   -0.35038
  5 Li    0.00337    0.00146   -0.36236
  6 Li   -0.00357   -0.00120   -0.36228
  7 Li    0.00001   -0.03292   -0.35025
  8 Li    0.00357   -0.00120   -0.36227
  9 Li   -0.00001    0.57567    0.75005
 10 Li    0.18981   -0.15056    0.12947
 11 Li   -0.18980   -0.15056    0.12947
 12 Li   -0.00001   -0.57068    0.75007
 13 Li    0.19343    0.15213    0.12514
 14 Li   -0.19342    0.15212    0.12513
 15 Li   -0.00000    0.00060    0.26633
 16 Li    0.11481   -0.00042    0.10611
 17 Li   -0.11481   -0.00042    0.10611
 18 Li    0.05450   -0.00210    0.05491
 19 Li    0.00000   -0.00011    0.02577
 20 Li   -0.05455   -0.00211    0.05492
 21 Li   -0.01368    0.00105    0.00604
 22 Li    0.00000    0.00903    0.02724
 23 Li    0.01368    0.00103    0.00605
 24 Li   -0.01500    0.00207    0.00579
 25 Li    0.00000   -0.00987    0.02747
 26 Li    0.01500    0.00208    0.00580
 27 Li   -0.00001   -0.06554    0.09894
 28 Li   -0.00570   -0.00576    0.06330
 29 Li    0.00572   -0.00575    0.06327
 30 Li   -0.00001    0.04735    0.08395
 31 Li   -0.00547    0.00613    0.06410
 32 Li    0.00549    0.00612    0.06407
 33 Li    0.00000   -0.00038    0.10308
 34 Li   -0.01954   -0.00036    0.07745
 35 Li    0.01953   -0.00036    0.07745
 36 N     0.00016   -0.00858   -0.12820

System changes: positions 

Initializing position-dependent things.

Density initialized from wave functions
       .-----------------------.  
      /|                       |  
     / |                       |  
    /  |                       |  
   /   |                       |  
  /    |                       |  
 *     |                       |  
 |     |                       |  
 |     |                       |  
 |     |                       |  
 |     |                       |  
 |     |                       |  
 |     |       Li      Li      |  
 |     |                       |  
 |   Li|     Li      Li        |  
 |     |  Li      Li      Li   |  
 |     |   Li      Li          |  
 | Li  |Li      Li      Li     |  
 |     |                       |  
 Li  Li|     LLi     Li        |  
 |N    Li Li      Li Li   Li   |  
 | Li  |   Li      Li          |  
 |     |Li      Li      Li     |  
 Li    | Li      Li            |  
 |    Li      Li      Li       |  
 |     |                       |  
 |     |                       |  
 |     |                       |  
 |     |                       |  
 |     |                       |  
 |     |                       |  
 |     .-----------------------.  
 |    /                       /   
 |   /                       /    
 |  /                       /     
 | /                       /      
 |/                       /       
 *-----------------------*        

Positions:
   0 Li     1.617037    1.617037   10.000000    ( 0.0000,  0.0000,  0.0000)
   1 Li     4.851111    1.617037   10.000000    ( 0.0000,  0.0000,  0.0000)
   2 Li     8.085185    1.617037   10.000000    ( 0.0000,  0.0000,  0.0000)
   3 Li     1.617037    4.851111   10.000000    ( 0.0000,  0.0000,  0.0000)
   4 Li     4.851111    4.851111   10.000000    ( 0.0000,  0.0000,  0.0000)
   5 Li     8.085185    4.851111   10.000000    ( 0.0000,  0.0000,  0.0000)
   6 Li     1.617037    8.085185   10.000000    ( 0.0000,  0.0000,  0.0000)
   7 Li     4.851111    8.085185   10.000000    ( 0.0000,  0.0000,  0.0000)
   8 Li     8.085185    8.085185   10.000000    ( 0.0000,  0.0000,  0.0000)
   9 Li     0.000000    0.000000   11.617037    ( 0.0000,  0.0000,  0.0000)
  10 Li     3.234074    0.000000   11.617037    ( 0.0000,  0.0000,  0.0000)
  11 Li     6.468148    0.000000   11.617037    ( 0.0000,  0.0000,  0.0000)
  12 Li     0.000000    3.234074   11.617037    ( 0.0000,  0.0000,  0.0000)
  13 Li     3.234074    3.234074   11.617037    ( 0.0000,  0.0000,  0.0000)
  14 Li     6.468148    3.234074   11.617037    ( 0.0000,  0.0000,  0.0000)
  15 Li     0.000000    6.468148   11.617037    ( 0.0000,  0.0000,  0.0000)
  16 Li     3.234074    6.468148   11.617037    ( 0.0000,  0.0000,  0.0000)
  17 Li     6.468148    6.468148   11.617037    ( 0.0000,  0.0000,  0.0000)
  18 Li     1.870771    1.620539   13.199616    ( 0.0000,  0.0000,  0.0000)
  19 Li     4.851111    1.617521   13.460479    ( 0.0000,  0.0000,  0.0000)
  20 Li     7.831451    1.620539   13.199616    ( 0.0000,  0.0000,  0.0000)
  21 Li     1.733751    4.948335   13.404415    ( 0.0000,  0.0000,  0.0000)
  22 Li     4.851111    4.855933   13.438838    ( 0.0000,  0.0000,  0.0000)
  23 Li     7.968471    4.948335   13.404415    ( 0.0000,  0.0000,  0.0000)
  24 Li     1.733951    7.985125   13.405194    ( 0.0000,  0.0000,  0.0000)
  25 Li     4.851111    8.080555   13.439136    ( 0.0000,  0.0000,  0.0000)
  26 Li     7.968271    7.985125   13.405194    ( 0.0000,  0.0000,  0.0000)
  27 Li     0.000000    0.256129   14.473612    ( 0.0000,  0.0000,  0.0000)
  28 Li     3.270033   -0.028689   15.373390    ( 0.0000,  0.0000,  0.0000)
  29 Li     6.432189   -0.028689   15.373390    ( 0.0000,  0.0000,  0.0000)
  30 Li     0.000000    2.987118   14.481771    ( 0.0000,  0.0000,  0.0000)
  31 Li     3.271238    3.262713   15.374307    ( 0.0000,  0.0000,  0.0000)
  32 Li     6.430984    3.262713   15.374307    ( 0.0000,  0.0000,  0.0000)
  33 Li     0.000000    6.469096   15.257113    ( 0.0000,  0.0000,  0.0000)
  34 Li     3.306769    6.467390   15.408410    ( 0.0000,  0.0000,  0.0000)
  35 Li     6.395453    6.467390   15.408410    ( 0.0000,  0.0000,  0.0000)
  36 N     -0.000000    1.642697   13.087534    ( 0.0000,  0.0000,  0.0000)

Unit cell:
           periodic     x           y           z      points  spacing
  1. axis:    yes    9.702222    0.000000    0.000000    60     0.1617
  2. axis:    yes    0.000000    9.702222    0.000000    60     0.1617
  3. axis:    no     0.000000    0.000000   24.851111   156     0.1593

  Lengths:   9.702222   9.702222  24.851111
  Angles:   90.000000  90.000000  90.000000

Effective grid spacing dv^(1/3) = 0.1609

     iter     time        total  log10-change:
                         energy  eigst   dens
iter:   1 01:35:30   -67.344848  -2.14
iter:   2 01:35:59   -67.344088  -2.94  -2.38
iter:   3 01:36:27   -67.343003c -2.35  -2.50
iter:   4 01:36:46   -67.342962c -2.89  -2.60
iter:   5 01:37:13   -67.342891c -2.77  -2.86
iter:   6 01:37:39   -67.342784c -2.74  -2.73
iter:   7 01:37:56   -67.342797c -3.30  -2.97
iter:   8 01:38:26   -67.342650c -3.80  -2.91
iter:   9 01:38:52   -67.342647c -3.85  -3.53
iter:  10 01:39:19   -67.342648c -4.55  -3.62
iter:  11 01:39:40   -67.342651c -4.55  -3.85
iter:  12 01:40:00   -67.342651c -4.94  -3.99
iter:  13 01:40:26   -67.342651c -5.22  -4.01c
iter:  14 01:40:47   -67.342652c -5.36  -4.07c
iter:  15 01:41:06   -67.342652c -5.33  -4.15c
iter:  16 01:41:30   -67.342652c -5.51  -4.17c
iter:  17 01:41:57   -67.342652c -5.74  -4.23c
iter:  18 01:42:22   -67.342652c -5.87  -4.23c
iter:  19 01:42:47   -67.342652c -6.16  -4.36c
iter:  20 01:43:12   -67.342652c -6.10  -4.45c
iter:  21 01:43:36   -67.342652c -6.23  -4.72c
iter:  22 01:43:53   -67.342652c -6.53  -4.81c
iter:  23 01:44:19   -67.342652c -6.32  -4.83c
iter:  24 01:44:46   -67.342652c -6.74  -4.85c
iter:  25 01:45:10   -67.342652c -6.82  -5.04c
iter:  26 01:45:37   -67.342653c -6.89  -5.04c
iter:  27 01:46:06   -67.342653c -6.89  -5.13c
iter:  28 01:46:34   -67.342653c -7.17  -5.39c
iter:  29 01:47:03   -67.342653c -7.10  -5.47c
iter:  30 01:47:30   -67.342653c -7.10  -5.52c
iter:  31 01:47:57   -67.342653c -7.30  -5.66c
iter:  32 01:48:17   -67.342653c -7.17  -5.72c
iter:  33 01:48:37   -67.342653c -7.46c -5.74c

Converged after 33 iterations.

Dipole moment: (-7.083940, -4.211251, 0.053532) |e|*Ang

Energy contributions relative to reference atoms: (reference = -8815.035974)

Kinetic:        +80.766906
Potential:      -67.434354
External:        +0.000000
XC:             -80.635979
Entropy (-ST):   -0.137135
Local:           +0.029341
--------------------------
Free energy:    -67.411220
Extrapolated:   -67.342653

Dipole-layer corrected work functions: 3.149344, 3.046438 eV

Showing only first 2 kpts
 Kpt  Band  Eigenvalues  Occupancy
  0    18     -3.35584    1.98857
  0    19     -3.24634    1.90231
  0    20     -3.13156    1.32455
  0    21     -3.02452    0.37469

  1    18     -3.45977    1.99856
  1    19     -3.27044    1.93852
  1    20     -3.08761    0.89755
  1    21     -2.99865    0.24160


Fermi level: -3.09789

No gap

Forces in eV/Ang:
  0 Li   -0.01476   -0.00045   -0.40507
  1 Li   -0.00000    0.00027   -0.26622
  2 Li    0.01476   -0.00045   -0.40507
  3 Li   -0.00318    0.00206   -0.36325
  4 Li    0.00000    0.03295   -0.34987
  5 Li    0.00318    0.00206   -0.36325
  6 Li   -0.00376   -0.00061   -0.36141
  7 Li    0.00000   -0.03281   -0.35077
  8 Li    0.00376   -0.00061   -0.36141
  9 Li   -0.00000    0.58292    0.74841
 10 Li    0.18966   -0.15141    0.12943
 11 Li   -0.18966   -0.15141    0.12943
 12 Li    0.00000   -0.56164    0.74998
 13 Li    0.19353    0.15126    0.12520
 14 Li   -0.19353    0.15126    0.12520
 15 Li    0.00000    0.00524    0.26631
 16 Li    0.11481   -0.00052    0.10611
 17 Li   -0.11481   -0.00052    0.10611
 18 Li    0.05374    0.00080    0.05486
 19 Li    0.00000    0.00060    0.02577
 20 Li   -0.05374    0.00080    0.05486
 21 Li   -0.01506   -0.00333    0.00537
 22 Li   -0.00000    0.00935    0.02733
 23 Li    0.01506   -0.00333    0.00536
 24 Li   -0.01383   -0.00198    0.00644
 25 Li   -0.00000   -0.00955    0.02738
 26 Li    0.01383   -0.00198    0.00644
 27 Li   -0.00000   -0.02668    0.06732
 28 Li   -0.00643   -0.00606    0.06276
 29 Li    0.00643   -0.00606    0.06276
 30 Li    0.00000    0.08738    0.11793
 31 Li   -0.00478    0.00581    0.06461
 32 Li    0.00478    0.00581    0.06461
 33 Li    0.00000    0.00227    0.10312
 34 Li   -0.01954   -0.00056    0.07745
 35 Li    0.01954   -0.00056    0.07745
 36 N     0.00000   -0.07343   -0.16250

System changes: positions 

Initializing position-dependent things.

Density initialized from wave functions
       .-----------------------.  
      /|                       |  
     / |                       |  
    /  |                       |  
   /   |                       |  
  /    |                       |  
 *     |                       |  
 |     |                       |  
 |     |                       |  
 |     |                       |  
 |     |                       |  
 |     |                       |  
 |     |       Li      Li      |  
 |     |                       |  
 |   Li|     Li      Li        |  
 |     |  Li      Li      Li   |  
 |     |   Li      Li          |  
 | Li  |Li      Li      Li     |  
 |     |                       |  
 Li  Li|     LLi     Li        |  
 |N    Li Li      Li Li   Li   |  
 | Li  |   Li      Li          |  
 |     |Li      Li      Li     |  
 Li    | Li      Li            |  
 |    Li      Li      Li       |  
 |     |                       |  
 |     |                       |  
 |     |                       |  
 |     |                       |  
 |     |                       |  
 |     |                       |  
 |     .-----------------------.  
 |    /                       /   
 |   /                       /    
 |  /                       /     
 | /                       /      
 |/                       /       
 *-----------------------*        

Positions:
   0 Li     1.617037    1.617037   10.000000    ( 0.0000,  0.0000,  0.0000)
   1 Li     4.851111    1.617037   10.000000    ( 0.0000,  0.0000,  0.0000)
   2 Li     8.085185    1.617037   10.000000    ( 0.0000,  0.0000,  0.0000)
   3 Li     1.617037    4.851111   10.000000    ( 0.0000,  0.0000,  0.0000)
   4 Li     4.851111    4.851111   10.000000    ( 0.0000,  0.0000,  0.0000)
   5 Li     8.085185    4.851111   10.000000    ( 0.0000,  0.0000,  0.0000)
   6 Li     1.617037    8.085185   10.000000    ( 0.0000,  0.0000,  0.0000)
   7 Li     4.851111    8.085185   10.000000    ( 0.0000,  0.0000,  0.0000)
   8 Li     8.085185    8.085185   10.000000    ( 0.0000,  0.0000,  0.0000)
   9 Li     0.000000    0.000000   11.617037    ( 0.0000,  0.0000,  0.0000)
  10 Li     3.234074    0.000000   11.617037    ( 0.0000,  0.0000,  0.0000)
  11 Li     6.468148    0.000000   11.617037    ( 0.0000,  0.0000,  0.0000)
  12 Li     0.000000    3.234074   11.617037    ( 0.0000,  0.0000,  0.0000)
  13 Li     3.234074    3.234074   11.617037    ( 0.0000,  0.0000,  0.0000)
  14 Li     6.468148    3.234074   11.617037    ( 0.0000,  0.0000,  0.0000)
  15 Li     0.000000    6.468148   11.617037    ( 0.0000,  0.0000,  0.0000)
  16 Li     3.234074    6.468148   11.617037    ( 0.0000,  0.0000,  0.0000)
  17 Li     6.468148    6.468148   11.617037    ( 0.0000,  0.0000,  0.0000)
  18 Li     1.870771    1.620539   13.199616    ( 0.0000,  0.0000,  0.0000)
  19 Li     4.851111    1.617521   13.460479    ( 0.0000,  0.0000,  0.0000)
  20 Li     7.831451    1.620539   13.199616    ( 0.0000,  0.0000,  0.0000)
  21 Li     1.733751    4.948335   13.404415    ( 0.0000,  0.0000,  0.0000)
  22 Li     4.851111    4.855933   13.438838    ( 0.0000,  0.0000,  0.0000)
  23 Li     7.968471    4.948335   13.404415    ( 0.0000,  0.0000,  0.0000)
  24 Li     1.733951    7.985125   13.405194    ( 0.0000,  0.0000,  0.0000)
  25 Li     4.851111    8.080555   13.439136    ( 0.0000,  0.0000,  0.0000)
  26 Li     7.968271    7.985125   13.405194    ( 0.0000,  0.0000,  0.0000)
  27 Li     0.000000    0.256129   14.473612    ( 0.0000,  0.0000,  0.0000)
  28 Li     3.270033   -0.028689   15.373390    ( 0.0000,  0.0000,  0.0000)
  29 Li     6.432189   -0.028689   15.373390    ( 0.0000,  0.0000,  0.0000)
  30 Li     0.000000    2.987118   14.481771    ( 0.0000,  0.0000,  0.0000)
  31 Li     3.271238    3.262713   15.374307    ( 0.0000,  0.0000,  0.0000)
  32 Li     6.430984    3.262713   15.374307    ( 0.0000,  0.0000,  0.0000)
  33 Li     0.000000    6.469096   15.257113    ( 0.0000,  0.0000,  0.0000)
  34 Li     3.306769    6.467390   15.408410    ( 0.0000,  0.0000,  0.0000)
  35 Li     6.395453    6.467390   15.408410    ( 0.0000,  0.0000,  0.0000)
  36 N     -0.000000    1.632697   13.077534    ( 0.0000,  0.0000,  0.0000)

Unit cell:
           periodic     x           y           z      points  spacing
  1. axis:    yes    9.702222    0.000000    0.000000    60     0.1617
  2. axis:    yes    0.000000    9.702222    0.000000    60     0.1617
  3. axis:    no     0.000000    0.000000   24.851111   156     0.1593

  Lengths:   9.702222   9.702222  24.851111
  Angles:   90.000000  90.000000  90.000000

Effective grid spacing dv^(1/3) = 0.1609

     iter     time        total  log10-change:
                         energy  eigst   dens
iter:   1 01:49:17   -67.345955  -2.42
iter:   2 01:49:46   -67.344527  -2.85  -2.24
iter:   3 01:50:14   -67.344293c -3.31  -2.56
iter:   4 01:50:42   -67.344048c -2.58  -2.69
iter:   5 01:51:08   -67.344051c -3.21  -2.78
iter:   6 01:51:43   -67.343949c -3.29  -2.92
iter:   7 01:52:29   -67.343958c -3.65  -3.15
iter:   8 01:52:58   -67.343933c -3.87  -3.24
iter:   9 01:53:24   -67.343907c -4.39  -3.31
iter:  10 01:53:52   -67.343909c -4.92  -3.71
iter:  11 01:54:20   -67.343905c -4.93  -3.74
iter:  12 01:54:47   -67.343906c -4.94  -3.86
iter:  13 01:55:15   -67.343907c -5.21  -3.94
iter:  14 01:55:40   -67.343905c -5.35  -4.07c
iter:  15 01:56:06   -67.343908c -5.44  -4.22c
iter:  16 01:56:30   -67.343907c -5.71  -4.18c
iter:  17 01:56:55   -67.343907c -5.80  -4.33c
iter:  18 01:57:19   -67.343908c -5.84  -4.50c
iter:  19 01:57:42   -67.343907c -6.11  -4.72c
iter:  20 01:58:05   -67.343907c -6.37  -4.76c
iter:  21 01:58:30   -67.343907c -6.18  -4.78c
iter:  22 01:58:53   -67.343907c -6.37  -4.82c
iter:  23 01:59:16   -67.343907c -6.72  -4.83c
iter:  24 01:59:43   -67.343906c -6.63  -4.86c
iter:  25 02:00:14   -67.343907c -6.69  -4.92c
iter:  26 02:00:43   -67.343906c -7.10  -4.98c
iter:  27 02:01:14   -67.343906c -7.00  -5.09c
iter:  28 02:01:44   -67.343906c -7.19  -5.22c
iter:  29 02:02:08   -67.343906c -7.34  -5.28c
iter:  30 02:02:33   -67.343906c -7.78c -5.38c

Converged after 30 iterations.

Dipole moment: (-7.084192, -4.198412, 0.053526) |e|*Ang

Energy contributions relative to reference atoms: (reference = -8815.035974)

Kinetic:        +80.656535
Potential:      -67.350511
External:        +0.000000
XC:             -80.610788
Entropy (-ST):   -0.137489
Local:           +0.029603
--------------------------
Free energy:    -67.412651
Extrapolated:   -67.343906

Dipole-layer corrected work functions: 3.150154, 3.047258 eV

Showing only first 2 kpts
 Kpt  Band  Eigenvalues  Occupancy
  0    18     -3.35705    1.98866
  0    19     -3.24701    1.90203
  0    20     -3.13194    1.32064
  0    21     -3.02567    0.37673

  1    18     -3.46089    1.99857
  1    19     -3.27101    1.93823
  1    20     -3.08740    0.88740
  1    21     -3.00113    0.24876


Fermi level: -3.09871

No gap

Forces in eV/Ang:
  0 Li   -0.01598   -0.00018   -0.40197
  1 Li   -0.00000    0.00012   -0.26606
  2 Li    0.01598   -0.00018   -0.40197
  3 Li   -0.00315    0.00209   -0.36315
  4 Li    0.00000    0.03301   -0.35007
  5 Li    0.00315    0.00209   -0.36315
  6 Li   -0.00353   -0.00122   -0.36218
  7 Li    0.00000   -0.03296   -0.35047
  8 Li    0.00353   -0.00122   -0.36218
  9 Li    0.00000    0.57834    0.74435
 10 Li    0.18959   -0.15116    0.12973
 11 Li   -0.18959   -0.15116    0.12973
 12 Li    0.00000   -0.56436    0.74431
 13 Li    0.19329    0.15185    0.12546
 14 Li   -0.19329    0.15184    0.12546
 15 Li    0.00000    0.00293    0.26643
 16 Li    0.11502   -0.00046    0.10609
 17 Li   -0.11502   -0.00046    0.10609
 18 Li    0.05398   -0.00066    0.05315
 19 Li    0.00000    0.00024    0.02583
 20 Li   -0.05398   -0.00067    0.05315
 21 Li   -0.01421   -0.00094    0.00586
 22 Li    0.00000    0.00940    0.02724
 23 Li    0.01421   -0.00094    0.00586
 24 Li   -0.01427   -0.00013    0.00627
 25 Li    0.00000   -0.00992    0.02737
 26 Li    0.01427   -0.00013    0.00627
 27 Li   -0.00000   -0.03290    0.06494
 28 Li   -0.00702   -0.00567    0.06322
 29 Li    0.00702   -0.00567    0.06322
 30 Li    0.00000    0.05302    0.08144
 31 Li   -0.00607    0.00575    0.06457
 32 Li    0.00607    0.00575    0.06457
 33 Li    0.00000    0.00094    0.10309
 34 Li   -0.01928   -0.00046    0.07746
 35 Li    0.01928   -0.00046    0.07746
 36 N     0.00000   -0.00488   -0.10867

System changes: positions 

Initializing position-dependent things.

Density initialized from wave functions
       .-----------------------.  
      /|                       |  
     / |                       |  
    /  |                       |  
   /   |                       |  
  /    |                       |  
 *     |                       |  
 |     |                       |  
 |     |                       |  
 |     |                       |  
 |     |                       |  
 |     |                       |  
 |     |       Li      Li      |  
 |     |                       |  
 |   Li|     Li      Li        |  
 |     |  Li      Li      Li   |  
 |     |   Li      Li          |  
 | Li  |Li      Li      Li     |  
 |     |                       |  
 Li  Li|     LLi     Li        |  
 |N    Li Li      Li Li   Li   |  
 | Li  |   Li      Li          |  
 |     |Li      Li      Li     |  
 Li    | Li      Li            |  
 |    Li      Li      Li       |  
 |     |                       |  
 |     |                       |  
 |     |                       |  
 |     |                       |  
 |     |                       |  
 |     |                       |  
 |     .-----------------------.  
 |    /                       /   
 |   /                       /    
 |  /                       /     
 | /                       /      
 |/                       /       
 *-----------------------*        

Positions:
   0 Li     1.617037    1.617037   10.000000    ( 0.0000,  0.0000,  0.0000)
   1 Li     4.851111    1.617037   10.000000    ( 0.0000,  0.0000,  0.0000)
   2 Li     8.085185    1.617037   10.000000    ( 0.0000,  0.0000,  0.0000)
   3 Li     1.617037    4.851111   10.000000    ( 0.0000,  0.0000,  0.0000)
   4 Li     4.851111    4.851111   10.000000    ( 0.0000,  0.0000,  0.0000)
   5 Li     8.085185    4.851111   10.000000    ( 0.0000,  0.0000,  0.0000)
   6 Li     1.617037    8.085185   10.000000    ( 0.0000,  0.0000,  0.0000)
   7 Li     4.851111    8.085185   10.000000    ( 0.0000,  0.0000,  0.0000)
   8 Li     8.085185    8.085185   10.000000    ( 0.0000,  0.0000,  0.0000)
   9 Li     0.000000    0.000000   11.617037    ( 0.0000,  0.0000,  0.0000)
  10 Li     3.234074    0.000000   11.617037    ( 0.0000,  0.0000,  0.0000)
  11 Li     6.468148    0.000000   11.617037    ( 0.0000,  0.0000,  0.0000)
  12 Li     0.000000    3.234074   11.617037    ( 0.0000,  0.0000,  0.0000)
  13 Li     3.234074    3.234074   11.617037    ( 0.0000,  0.0000,  0.0000)
  14 Li     6.468148    3.234074   11.617037    ( 0.0000,  0.0000,  0.0000)
  15 Li     0.000000    6.468148   11.617037    ( 0.0000,  0.0000,  0.0000)
  16 Li     3.234074    6.468148   11.617037    ( 0.0000,  0.0000,  0.0000)
  17 Li     6.468148    6.468148   11.617037    ( 0.0000,  0.0000,  0.0000)
  18 Li     1.870771    1.620539   13.199616    ( 0.0000,  0.0000,  0.0000)
  19 Li     4.851111    1.617521   13.460479    ( 0.0000,  0.0000,  0.0000)
  20 Li     7.831451    1.620539   13.199616    ( 0.0000,  0.0000,  0.0000)
  21 Li     1.733751    4.948335   13.404415    ( 0.0000,  0.0000,  0.0000)
  22 Li     4.851111    4.855933   13.438838    ( 0.0000,  0.0000,  0.0000)
  23 Li     7.968471    4.948335   13.404415    ( 0.0000,  0.0000,  0.0000)
  24 Li     1.733951    7.985125   13.405194    ( 0.0000,  0.0000,  0.0000)
  25 Li     4.851111    8.080555   13.439136    ( 0.0000,  0.0000,  0.0000)
  26 Li     7.968271    7.985125   13.405194    ( 0.0000,  0.0000,  0.0000)
  27 Li     0.000000    0.256129   14.473612    ( 0.0000,  0.0000,  0.0000)
  28 Li     3.270033   -0.028689   15.373390    ( 0.0000,  0.0000,  0.0000)
  29 Li     6.432189   -0.028689   15.373390    ( 0.0000,  0.0000,  0.0000)
  30 Li     0.000000    2.987118   14.481771    ( 0.0000,  0.0000,  0.0000)
  31 Li     3.271238    3.262713   15.374307    ( 0.0000,  0.0000,  0.0000)
  32 Li     6.430984    3.262713   15.374307    ( 0.0000,  0.0000,  0.0000)
  33 Li     0.000000    6.469096   15.257113    ( 0.0000,  0.0000,  0.0000)
  34 Li     3.306769    6.467390   15.408410    ( 0.0000,  0.0000,  0.0000)
  35 Li     6.395453    6.467390   15.408410    ( 0.0000,  0.0000,  0.0000)
  36 N     -0.000000    1.632697   13.097534    ( 0.0000,  0.0000,  0.0000)

Unit cell:
           periodic     x           y           z      points  spacing
  1. axis:    yes    9.702222    0.000000    0.000000    60     0.1617
  2. axis:    yes    0.000000    9.702222    0.000000    60     0.1617
  3. axis:    no     0.000000    0.000000   24.851111   156     0.1593

  Lengths:   9.702222   9.702222  24.851111
  Angles:   90.000000  90.000000  90.000000

Effective grid spacing dv^(1/3) = 0.1609

     iter     time        total  log10-change:
                         energy  eigst   dens
iter:   1 02:03:26   -67.348939  -2.11
iter:   2 02:03:52   -67.341982  -2.28  -1.99
iter:   3 02:04:17   -67.341746c -2.81  -2.41
iter:   4 02:04:44   -67.341283c -2.31  -2.53
iter:   5 02:05:04   -67.341004c -2.74  -2.64
iter:   6 02:05:27   -67.341132c -2.79  -2.81
iter:   7 02:05:53   -67.340983c -3.27  -2.89
iter:   8 02:06:22   -67.341017c -3.31  -3.19
iter:   9 02:06:50   -67.341037c -3.97  -3.19
iter:  10 02:07:22   -67.341037c -4.05  -3.47
iter:  11 02:07:50   -67.341042c -4.40  -3.57
iter:  12 02:08:16   -67.341054c -4.39  -3.63
iter:  13 02:08:47   -67.341051c -4.43  -3.79
iter:  14 02:09:11   -67.341060c -4.81  -3.73
iter:  15 02:09:39   -67.341064c -4.73  -3.81
iter:  16 02:10:04   -67.341068c -4.82  -3.88
iter:  17 02:10:31   -67.341067c -5.26  -3.98
iter:  18 02:10:58   -67.341067c -5.34  -4.05c
iter:  19 02:11:27   -67.341067c -5.54  -4.20c
iter:  20 02:11:50   -67.341068c -5.73  -4.25c
iter:  21 02:12:14   -67.341070c -5.73  -4.30c
iter:  22 02:12:42   -67.341069c -6.14  -4.45c
iter:  23 02:13:06   -67.341068c -5.82  -4.54c
iter:  24 02:13:34   -67.341069c -6.30  -4.58c
iter:  25 02:13:55   -67.341070c -6.22  -4.86c
iter:  26 02:14:23   -67.341070c -6.46  -4.87c
iter:  27 02:14:46   -67.341070c -6.61  -5.13c
iter:  28 02:15:11   -67.341070c -6.73  -5.14c
iter:  29 02:15:37   -67.341070c -6.44  -5.10c
iter:  30 02:16:02   -67.341070c -7.02  -4.81c
iter:  31 02:16:27   -67.341070c -7.02  -4.85c
iter:  32 02:16:50   -67.341070c -6.85  -4.81c
iter:  33 02:17:16   -67.341070c -7.11  -4.76c
iter:  34 02:17:37   -67.341071c -7.11  -4.96c
iter:  35 02:18:04   -67.341071c -7.20  -5.17c
iter:  36 02:18:27   -67.341071c -7.57c -5.41c

Converged after 36 iterations.

Dipole moment: (-7.083774, -4.196120, 0.053533) |e|*Ang

Energy contributions relative to reference atoms: (reference = -8815.035974)

Kinetic:        +80.871079
Potential:      -67.512732
External:        +0.000000
XC:             -80.660729
Entropy (-ST):   -0.136779
Local:           +0.029700
--------------------------
Free energy:    -67.409460
Extrapolated:   -67.341071

Dipole-layer corrected work functions: 3.148536, 3.045629 eV

Showing only first 2 kpts
 Kpt  Band  Eigenvalues  Occupancy
  0    18     -3.35463    1.98848
  0    19     -3.24565    1.90253
  0    20     -3.13128    1.32924
  0    21     -3.02339    0.37272

  1    18     -3.45873    1.99856
  1    19     -3.26987    1.93880
  1    20     -3.08780    0.90745
  1    21     -2.99618    0.23463


Fermi level: -3.09708

No gap

Forces in eV/Ang:
  0 Li   -0.01355   -0.00020   -0.40810
  1 Li    0.00000    0.00011   -0.26640
  2 Li    0.01355   -0.00020   -0.40810
  3 Li   -0.00339    0.00144   -0.36247
  4 Li    0.00000    0.03283   -0.35018
  5 Li    0.00339    0.00144   -0.36247
  6 Li   -0.00377   -0.00059   -0.36150
  7 Li   -0.00000   -0.03278   -0.35055
  8 Li    0.00377   -0.00059   -0.36150
  9 Li    0.00000    0.58025    0.75419
 10 Li    0.18987   -0.15080    0.12916
 11 Li   -0.18987   -0.15080    0.12916
 12 Li   -0.00000   -0.56794    0.75579
 13 Li    0.19365    0.15154    0.12485
 14 Li   -0.19365    0.15154    0.12485
 15 Li    0.00000    0.00291    0.26620
 16 Li    0.11461   -0.00048    0.10610
 17 Li   -0.11461   -0.00048    0.10610
 18 Li    0.05428   -0.00066    0.05662
 19 Li   -0.00000    0.00024    0.02571
 20 Li   -0.05428   -0.00066    0.05662
 21 Li   -0.01450   -0.00130    0.00555
 22 Li   -0.00000    0.00897    0.02735
 23 Li    0.01450   -0.00130    0.00555
 24 Li   -0.01454    0.00018    0.00595
 25 Li    0.00000   -0.00948    0.02748
 26 Li    0.01454    0.00018    0.00595
 27 Li   -0.00000   -0.05953    0.10108
 28 Li   -0.00513   -0.00613    0.06281
 29 Li    0.00513   -0.00613    0.06281
 30 Li    0.00000    0.08196    0.12023
 31 Li   -0.00420    0.00618    0.06413
 32 Li    0.00420    0.00618    0.06413
 33 Li   -0.00000    0.00096    0.10309
 34 Li   -0.01978   -0.00046    0.07746
 35 Li    0.01978   -0.00046    0.07746
 36 N    -0.00000   -0.02393   -0.23308

Timing:                                      incl.     excl.
-------------------------------------------------------------------
Density initialized from wave functions:     2.114     2.114   0.0% |
 Symmetrize density:                         0.000     0.000   0.0% |
Forces:                                     33.704    33.704   0.1% |
Hamiltonian:                                11.739     0.001   0.0% |
 Atomic:                                     0.515     0.049   0.0% |
  XC Correction:                             0.466     0.466   0.0% |
 Calculate atomic Hamiltonians:              0.314     0.314   0.0% |
 Communicate:                                0.580     0.580   0.0% |
 Hartree integrate/restrict:                 0.094     0.094   0.0% |
 Initialize Hamiltonian:                     0.000     0.000   0.0% |
 Poisson:                                    7.069     2.169   0.0% |
  Communicate from 1D:                       1.598     1.598   0.0% |
  Communicate from 2D:                       1.165     1.165   0.0% |
  Communicate to 1D:                         0.803     0.803   0.0% |
  Communicate to 2D:                         0.656     0.656   0.0% |
  FFT 1D:                                    0.331     0.331   0.0% |
  FFT 2D:                                    0.347     0.347   0.0% |
 XC 3D grid:                                 3.156     3.156   0.0% |
 vbar:                                       0.010     0.010   0.0% |
LCAO initialization:                         4.987     0.081   0.0% |
 LCAO eigensolver:                           0.960     0.004   0.0% |
  Calculate projections:                     0.000     0.000   0.0% |
  DenseAtomicCorrection:                     0.001     0.001   0.0% |
  Distribute overlap matrix:                 0.604     0.604   0.0% |
  Orbital Layouts:                           0.345     0.345   0.0% |
  Potential matrix:                          0.000     0.000   0.0% |
  Sum over cells:                            0.007     0.007   0.0% |
 LCAO to grid:                               3.007     3.007   0.0% |
 Set positions (LCAO WFS):                   0.939     0.826   0.0% |
  Basic WFS set positions:                   0.002     0.002   0.0% |
  Basis functions set positions:             0.000     0.000   0.0% |
  P tci:                                     0.002     0.002   0.0% |
  ST tci:                                    0.056     0.056   0.0% |
  mktci:                                     0.053     0.053   0.0% |
Redistribute:                                0.019     0.019   0.0% |
SCF-cycle:                               41089.355  1267.629   3.1% ||
 Davidson:                               39025.028 29902.077  72.6% |----------------------------|
  Apply hamiltonian:                      1595.026  1595.026   3.9% |-|
  Subspace diag:                          2072.851     0.741   0.0% |
   calc_h_matrix:                         1581.127    64.580   0.2% |
    Apply hamiltonian:                    1516.547  1516.547   3.7% ||
   diagonalize:                            301.175   301.175   0.7% |
   rotate_psi:                             189.807   189.807   0.5% |
  calc. matrices:                         4921.141  1389.750   3.4% ||
   Apply hamiltonian:                     3531.391  3531.391   8.6% |--|
  diagonalize:                               9.226     9.226   0.0% |
  rotate_psi:                              524.706   524.706   1.3% ||
 Density:                                  113.119     0.013   0.0% |
  Atomic density matrices:                  28.376    28.376   0.1% |
  Mix:                                      54.434    54.434   0.1% |
  Multipole moments:                         3.220     3.220   0.0% |
  Pseudo density:                           27.077    27.065   0.1% |
   Symmetrize density:                       0.012     0.012   0.0% |
 Hamiltonian:                              673.830     0.067   0.0% |
  Atomic:                                   17.999     1.023   0.0% |
   XC Correction:                           16.976    16.976   0.0% |
  Calculate atomic Hamiltonians:            40.491    40.491   0.1% |
  Communicate:                              57.974    57.974   0.1% |
  Hartree integrate/restrict:               60.681    60.681   0.1% |
  Poisson:                                 332.686    97.423   0.2% |
   Communicate from 1D:                     61.044    61.044   0.1% |
   Communicate from 2D:                     56.450    56.450   0.1% |
   Communicate to 1D:                       25.761    25.761   0.1% |
   Communicate to 2D:                       68.425    68.425   0.2% |
   FFT 1D:                                  12.178    12.178   0.0% |
   FFT 2D:                                  11.405    11.405   0.0% |
  XC 3D grid:                              163.480   163.480   0.4% |
  vbar:                                      0.450     0.450   0.0% |
 Orthonormalize:                             9.749     0.019   0.0% |
  calc_s_matrix:                             1.150     1.150   0.0% |
  inverse-cholesky:                          5.769     5.769   0.0% |
  projections:                               0.007     0.007   0.0% |
  rotate_psi_s:                              2.804     2.804   0.0% |
Set symmetry:                                0.003     0.003   0.0% |
Other:                                      66.565    66.565   0.2% |
-------------------------------------------------------------------
Total:                                             41208.486 100.0%

Memory usage: 341.27 MiB
Date: Thu Feb  2 02:18:31 2023
