
  ___ ___ ___ _ _ _  
 |   |   |_  | | | | 
 | | | | | . | | | | 
 |__ |  _|___|_____|  22.8.0
 |___|_|             

User:   vazumah@f024
Date:   Thu Jan 12 21:06:42 2023
Arch:   x86_64
Pid:    28042
CWD:    /home/vazumah/Python_Projects/Li_NRR/Li_adsorb_studies/autocat/multi_adsorbates/3N/adsorbates/N/bridge/8.085_1.617
Python: 3.10.6
gpaw:   /home/vazumah/anaconda3/envs/NAME/lib/python3.10/site-packages/gpaw
_gpaw:  /home/vazumah/anaconda3/envs/NAME/lib/python3.10/site-packages/
        _gpaw.cpython-310-x86_64-linux-gnu.so
ase:    /home/vazumah/anaconda3/envs/NAME/lib/python3.10/site-packages/ase (version 3.22.1)
numpy:  /home/vazumah/anaconda3/envs/NAME/lib/python3.10/site-packages/numpy (version 1.23.3)
scipy:  /home/vazumah/anaconda3/envs/NAME/lib/python3.10/site-packages/scipy (version 1.9.1)
libxc:  5.2.3
units:  Angstrom and eV
cores: 32
OpenMP: True
OMP_NUM_THREADS: 1

Reading from output.gpw
Reading input parameters:
  h: 0.16
  kpts: {size: [4, 4, 1]}
  occupations: {name: fermi-dirac,
                width: 0.05}
  poissonsolver: {dipolelayer: xy}
  xc: BEEF-vdW

Initialize ...

species:
  Li:
    name: Lithium
    id: 830b4218f175192f93f959cfc0aad614
    Z: 3.0
    valence: 1
    core: 2
    charge: 0.0
    file: /home/vazumah/anaconda3/envs/NAME/share/gpaw/Li.PBE.gz
    compensation charges: {type: gauss,
                           rc: 0.33,
                           lmax: 2}
    cutoffs: {filter: 1.91,
              core: 2.55}
    valence states:
      #              energy  rcut
      - 2s(1.00)    -2.874   1.058
      - 2p(0.00)    -1.090   1.058
      -  s          24.337   1.058
  
    # Using partial waves for Li as LCAO basis

  N:
    name: Nitrogen
    id: f7500608b86eaa90eef8b1d9a670dc53
    Z: 7.0
    valence: 5
    core: 2
    charge: 0.0
    file: /home/vazumah/anaconda3/envs/NAME/share/gpaw/N.PBE.gz
    compensation charges: {type: gauss,
                           rc: 0.18,
                           lmax: 2}
    cutoffs: {filter: 1.11,
              core: 0.96}
    valence states:
      #              energy  rcut
      - 2s(2.00)   -18.583   0.603
      - 2p(3.00)    -7.089   0.529
      -  s           8.629   0.603
      -  p          20.123   0.529
      -  d           0.000   0.577
  
    # Using partial waves for N as LCAO basis

Reference energy: -11745.526041  # eV

Spin-paired calculation

Convergence criteria:
 Maximum [total energy] change in last 3 cyles: 0.0005 eV / electron
 Maximum integral of absolute [dens]ity change: 0.0001 electrons / valence electron
 Maximum integral of absolute [eigenst]ate change: 4e-08 eV^2 / valence electron
 Maximum number of scf [iter]ations: 333
 (Square brackets indicate name in SCF output, whereas a 'c' in
 the SCF output indicates the quantity has converged.)

Symmetries present (total): 1

  ( 1  0  0)
  ( 0  1  0)
  ( 0  0  1)

16 k-points: 4 x 4 x 1 Monkhorst-Pack grid
8 k-points in the irreducible part of the Brillouin zone
       k-points in crystal coordinates                weights
   0:     0.12500000   -0.37500000    0.00000000          2/16
   1:     0.12500000   -0.12500000    0.00000000          2/16
   2:     0.12500000    0.12500000    0.00000000          2/16
   3:     0.12500000    0.37500000    0.00000000          2/16
   4:     0.37500000   -0.37500000    0.00000000          2/16
   5:     0.37500000   -0.12500000    0.00000000          2/16
   6:     0.37500000    0.12500000    0.00000000          2/16
   7:     0.37500000    0.37500000    0.00000000          2/16

Wave functions: Uniform real-space grid
  Kinetic energy operator: 6*3+1=19 point O(h^6) finite-difference Laplacian
  ScaLapack parameters: grid=1x1, blocksize=None
  Wavefunction extrapolation:
    Improved wavefunction reuse through dual PAW basis 

Occupation numbers: Fermi-Dirac:
  width: 0.0500  # eV
 

Eigensolver
   Davidson(niter=2) 

Densities:
  Coarse grid: 60*60*156 grid
  Fine grid: 120*120*312 grid
  Total Charge: 0.000000 

Density mixing:
  Method: separate
  Backend: pulay
  Linear mixing parameter: 0.05
  old densities: 5
  Damping of long wavelength oscillations: 50 

Hamiltonian:
  XC and Coulomb potentials evaluated on a 120*120*312 grid
  Using the BEEF-vdW Exchange-Correlation functional
  Interpolation: tri-quintic (5. degree polynomial)
  Poisson solver: FastPoissonSolver using
    Stencil: 6*3+1=19 point O(h^6) finite-difference Laplacian
    FFT axes: [0, 1]
    FST axes: [2]

Dipole correction along z-axis 

XC parameters: BEEF-vdW with 2 nearest neighbor stencil

Memory estimate:
  Process memory now: 212.53 MiB
  Calculator: 268.04 MiB
    Density: 86.93 MiB
      Arrays: 27.47 MiB
      Localized functions: 49.03 MiB
      Mixer: 10.44 MiB
    Hamiltonian: 21.84 MiB
      Arrays: 17.96 MiB
      XC: 0.00 MiB
      Poisson: 0.00 MiB
      vbar: 3.88 MiB
    Wavefunctions: 159.26 MiB
      Arrays psit_nG: 73.06 MiB
      Eigensolver: 83.68 MiB
      Projections: 0.03 MiB
      Projectors: 2.49 MiB

Total number of cores used: 32
Parallelization over k-points: 8
Domain decomposition: 1 x 1 x 4

Number of atoms: 39
Number of atomic orbitals: 156
Number of bands in calculation: 35
Number of valence electrons: 51
Bands to converge: occupied

... initialized

Initializing position-dependent things.

Creating initial wave functions:
  35 bands from LCAO basis set

       .-----------------------.  
      /|                       |  
     / |                       |  
    /  |                       |  
   /   |                       |  
  /    |                       |  
 *     |                       |  
 |     |                       |  
 |     |                       |  
 |     |                       |  
 |     |                       |  
 |     Li                      |  
 |     |      Li               |  
 |    Li  N  Li     Li         |  
 |     |                       |  
 |     |  LiLi  N LLi     Li   |  
 |     |              N        |  
 |     |Li      LiLi    Li     |  
 |     |                       |  
 |   LLi     LLi     LLi       |  
 |     |  Li      Li      Li   |  
 | Li  |   Li      Li          |  
 |     |Li      Li      Li     |  
 Li    | Li      Li            |  
 |    Li      Li      Li       |  
 |     |                       |  
 |     |                       |  
 |     |                       |  
 |     |                       |  
 |     |                       |  
 |     |                       |  
 |     .-----------------------.  
 |    /                       /   
 |   /                       /    
 |  /                       /     
 | /                       /      
 |/                       /       
 *-----------------------*        

Positions:
   0 Li     1.617037    1.617037   10.000000    ( 0.0000,  0.0000,  0.0000)
   1 Li     4.851111    1.617037   10.000000    ( 0.0000,  0.0000,  0.0000)
   2 Li     8.085185    1.617037   10.000000    ( 0.0000,  0.0000,  0.0000)
   3 Li     1.617037    4.851111   10.000000    ( 0.0000,  0.0000,  0.0000)
   4 Li     4.851111    4.851111   10.000000    ( 0.0000,  0.0000,  0.0000)
   5 Li     8.085185    4.851111   10.000000    ( 0.0000,  0.0000,  0.0000)
   6 Li     1.617037    8.085185   10.000000    ( 0.0000,  0.0000,  0.0000)
   7 Li     4.851111    8.085185   10.000000    ( 0.0000,  0.0000,  0.0000)
   8 Li     8.085185    8.085185   10.000000    ( 0.0000,  0.0000,  0.0000)
   9 Li     0.000000    0.000000   11.617037    ( 0.0000,  0.0000,  0.0000)
  10 Li     3.234074    0.000000   11.617037    ( 0.0000,  0.0000,  0.0000)
  11 Li     6.468148    0.000000   11.617037    ( 0.0000,  0.0000,  0.0000)
  12 Li     0.000000    3.234074   11.617037    ( 0.0000,  0.0000,  0.0000)
  13 Li     3.234074    3.234074   11.617037    ( 0.0000,  0.0000,  0.0000)
  14 Li     6.468148    3.234074   11.617037    ( 0.0000,  0.0000,  0.0000)
  15 Li     0.000000    6.468148   11.617037    ( 0.0000,  0.0000,  0.0000)
  16 Li     3.234074    6.468148   11.617037    ( 0.0000,  0.0000,  0.0000)
  17 Li     6.468148    6.468148   11.617037    ( 0.0000,  0.0000,  0.0000)
  18 Li     1.610879    1.667277   13.697251    ( 0.0000,  0.0000,  0.0000)
  19 Li     4.828078    1.626830   13.724296    ( 0.0000,  0.0000,  0.0000)
  20 Li     8.099368    1.602721   13.894606    ( 0.0000,  0.0000,  0.0000)
  21 Li     1.566654    4.797774   13.650383    ( 0.0000,  0.0000,  0.0000)
  22 Li     4.840658    4.860204   13.727923    ( 0.0000,  0.0000,  0.0000)
  23 Li     8.075796    4.873585   13.723380    ( 0.0000,  0.0000,  0.0000)
  24 Li     1.619005    8.081596   13.768038    ( 0.0000,  0.0000,  0.0000)
  25 Li     4.904712    8.136171   13.649676    ( 0.0000,  0.0000,  0.0000)
  26 Li     8.034859    8.090927   13.697517    ( 0.0000,  0.0000,  0.0000)
  27 Li     0.122290   -0.124653   15.931993    ( 0.0000,  0.0000,  0.0000)
  28 Li     3.000046   -0.342614   15.752228    ( 0.0000,  0.0000,  0.0000)
  29 Li     6.832800    0.285505   16.041360    ( 0.0000,  0.0000,  0.0000)
  30 Li    -0.286123    2.868293   16.041194    ( 0.0000,  0.0000,  0.0000)
  31 Li     3.460340    3.593822   15.785460    ( 0.0000,  0.0000,  0.0000)
  32 Li     6.320518    3.379829   15.888850    ( 0.0000,  0.0000,  0.0000)
  33 Li     0.338948    6.698633   15.752439    ( 0.0000,  0.0000,  0.0000)
  34 Li     3.143424    6.555235   15.763305    ( 0.0000,  0.0000,  0.0000)
  35 Li     6.102744    6.236406   15.782940    ( 0.0000,  0.0000,  0.0000)
  36 N      8.257897    1.443141   15.767861    ( 0.0000,  0.0000,  0.0000)
  37 N      1.682974    8.015991   15.595429    ( 0.0000,  0.0000,  0.0000)
  38 N      4.923337    4.774260   15.598283    ( 0.0000,  0.0000,  0.0000)

Unit cell:
           periodic     x           y           z      points  spacing
  1. axis:    yes    9.702222    0.000000    0.000000    60     0.1617
  2. axis:    yes    0.000000    9.702222    0.000000    60     0.1617
  3. axis:    no     0.000000    0.000000   24.851111   156     0.1593

  Lengths:   9.702222   9.702222  24.851111
  Angles:   90.000000  90.000000  90.000000

Effective grid spacing dv^(1/3) = 0.1609

     iter     time        total  log10-change:
                         energy  eigst   dens
iter:   1 21:07:36  -250.064373  +0.90
iter:   2 21:08:26  -250.432234  +0.29  -1.74
iter:   3 21:09:14  -250.542612  -0.16  -2.01
iter:   4 21:10:05  -250.586120  -0.54  -2.24
Writing to output.gpw (mode='')

iter:   5 21:10:55  -250.605409  -0.89  -2.51
iter:   6 21:11:46  -250.614493  -1.22  -2.71
iter:   7 21:12:43  -250.619371c -1.49  -2.87
iter:   8 21:13:51  -250.622060c -1.74  -2.80
iter:   9 21:14:43  -250.623533c -1.99  -2.84
Writing to output.gpw (mode='')

iter:  10 21:16:04  -250.624709c -2.07  -2.93
iter:  11 21:17:27  -250.625274c -2.38  -2.93
iter:  12 21:18:34  -250.625595c -2.45  -3.00
iter:  13 21:19:41  -250.626007c -2.63  -3.25
iter:  14 21:20:47  -250.626209c -2.78  -3.29
Writing to output.gpw (mode='')

iter:  15 21:22:30  -250.626385c -2.87  -3.53
iter:  16 21:24:21  -250.626535c -3.06  -3.63
iter:  17 21:25:46  -250.626638c -3.16  -3.79
iter:  18 21:27:05  -250.626722c -3.27  -3.79
iter:  19 21:28:47  -250.626771c -3.35  -3.73
Writing to output.gpw (mode='')

iter:  20 21:31:47  -250.626823c -3.44  -3.47
iter:  21 21:35:01  -250.626866c -3.49  -3.38
iter:  22 21:36:27  -250.626895c -3.65  -3.32
iter:  23 21:37:49  -250.626925c -3.84  -3.28
iter:  24 21:40:09  -250.626943c -3.86  -3.41
Writing to output.gpw (mode='')

iter:  25 21:42:32  -250.626951c -4.07  -3.23
iter:  26 21:47:06  -250.626981c -4.05  -3.29
iter:  27 21:48:34  -250.626993c -4.29  -3.54
iter:  28 21:50:07  -250.627040c -4.02  -3.53
iter:  29 21:51:29  -250.627057c -4.20  -3.50
Writing to output.gpw (mode='')

iter:  30 21:52:52  -250.627029c -4.60  -3.51
iter:  31 21:54:21  -250.627034c -4.71  -3.54
iter:  32 21:55:42  -250.627034c -4.66  -3.49
iter:  33 21:57:06  -250.627042c -4.88  -3.64
iter:  34 21:58:52  -250.627048c -4.97  -3.71
Writing to output.gpw (mode='')

iter:  35 22:00:46  -250.627027c -4.56  -3.73
iter:  36 22:03:41  -250.627031c -5.24  -4.03c
iter:  37 22:06:05  -250.627038c -5.23  -4.11c
iter:  38 22:08:41  -250.627033c -5.30  -4.15c
iter:  39 22:12:06  -250.627035c -5.46  -4.19c
Writing to output.gpw (mode='')

iter:  40 22:16:00  -250.627039c -5.53  -4.32c
iter:  41 22:18:27  -250.627036c -5.70  -4.33c
iter:  42 22:20:34  -250.627038c -5.99  -4.48c
iter:  43 22:23:50  -250.627040c -5.86  -4.50c
iter:  44 22:26:47  -250.627040c -6.04  -4.42c
Writing to output.gpw (mode='')

iter:  45 22:30:10  -250.627039c -6.15  -4.53c
iter:  46 22:31:40  -250.627039c -6.16  -4.63c
iter:  47 22:33:07  -250.627040c -6.43  -4.77c
iter:  48 22:34:29  -250.627040c -6.52  -4.77c
iter:  49 22:38:19  -250.627041c -6.44  -4.77c
Writing to output.gpw (mode='')

iter:  50 22:40:16  -250.627039c -6.35  -4.83c
iter:  51 22:41:56  -250.627039c -6.76  -4.83c
iter:  52 22:44:09  -250.627040c -6.74  -4.88c
iter:  53 22:46:00  -250.627040c -6.72  -5.01c
iter:  54 22:47:23  -250.627040c -7.02  -5.05c
Writing to output.gpw (mode='')

iter:  55 22:48:39  -250.627040c -6.88  -5.19c
iter:  56 22:50:18  -250.627040c -7.18  -5.28c
iter:  57 22:52:04  -250.627040c -7.11  -5.37c
iter:  58 22:55:07  -250.627040c -7.31  -5.30c
iter:  59 22:56:54  -250.627040c -7.46c -5.61c

Converged after 59 iterations.

Dipole moment: (-4.045346, 0.311367, -0.002897) |e|*Ang

Energy contributions relative to reference atoms: (reference = -11745.526041)

Kinetic:        +87.223084
Potential:      -77.369184
External:        +0.000000
XC:            -260.983875
Entropy (-ST):   -0.183721
Local:           +0.594795
--------------------------
Free energy:   -250.718900
Extrapolated:  -250.627040

Dipole-layer corrected work functions: 3.483160, 3.488729 eV

Showing only first 2 kpts
 Kpt  Band  Eigenvalues  Occupancy
  0    23     -3.67079    1.95160
  0    24     -3.52475    1.36972
  0    25     -3.45283    0.68044
  0    26     -3.44194    0.58629

  1    23     -3.83192    1.99803
  1    24     -3.70609    1.97581
  1    25     -3.59885    1.81071
  1    26     -3.35477    0.13527


Fermi level: -3.48594

No gap
Writing to output.gpw (mode='')


Forces in eV/Ang:
  0 Li   -0.00532   -0.00574   -0.29583
  1 Li    0.00845    0.00541   -0.30508
  2 Li    0.00196   -0.00187   -0.30336
  3 Li    0.01014    0.00809   -0.29032
  4 Li    0.00130   -0.00139   -0.29407
  5 Li   -0.00539   -0.00845   -0.30514
  6 Li    0.00514   -0.00515   -0.29690
  7 Li   -0.00803   -0.01008   -0.29047
  8 Li    0.00576    0.00534   -0.29575
  9 Li   -0.01147    0.01128    0.27107
 10 Li   -0.01341    0.02188    0.37943
 11 Li    0.01703    0.05238    0.35402
 12 Li   -0.05179   -0.01686    0.35427
 13 Li   -0.00411   -0.00666    0.35671
 14 Li    0.02805   -0.02829    0.28171
 15 Li   -0.02172    0.01305    0.37864
 16 Li   -0.00342    0.00348    0.25597
 17 Li    0.00644    0.00371    0.35781
 18 Li   -0.02543    0.01266    0.03704
 19 Li   -0.03210   -0.02289   -0.01184
 20 Li    0.01252   -0.01327    0.06319
 21 Li   -0.05504   -0.00475   -0.02267
 22 Li   -0.00648    0.00389   -0.01614
 23 Li    0.02312    0.03157   -0.01213
 24 Li   -0.01919    0.01921   -0.38403
 25 Li    0.00387    0.05472   -0.02240
 26 Li   -0.01341    0.02492    0.03698
 27 Li   -0.10473    0.10572   -0.06745
 28 Li   -0.02187   -0.00347    0.06905
 29 Li   -0.00582   -0.04051   -0.04390
 30 Li    0.03877    0.00371   -0.04424
 31 Li    0.10404    0.02759    0.03952
 32 Li   -0.00446    0.00284    0.02317
 33 Li    0.00659    0.02498    0.06856
 34 Li    0.02257   -0.02270    0.06024
 35 Li   -0.01961   -0.09380    0.04331
 36 N     0.21937   -0.22086   -0.28345
 37 N    -0.03952    0.03008    0.24373
 38 N    -0.03956    0.03524   -0.04635

System changes: positions 

Initializing position-dependent things.

Density initialized from wave functions
       .-----------------------.  
      /|                       |  
     / |                       |  
    /  |                       |  
   /   |                       |  
  /    |                       |  
 *     |                       |  
 |     |                       |  
 |     |                       |  
 |     |                       |  
 |     |                       |  
 |     Li                      |  
 |     |      Li               |  
 |    Li  N  Li     Li         |  
 |     |                       |  
 |     |  LiLi  N LLi     Li   |  
 |     |              N        |  
 |     |Li      LiLi    Li     |  
 |     |                       |  
 |   LLi     LLi     LLi       |  
 |     |  Li      Li      Li   |  
 | Li  |   Li      Li          |  
 |     |Li      Li      Li     |  
 Li    | Li      Li            |  
 |    Li      Li      Li       |  
 |     |                       |  
 |     |                       |  
 |     |                       |  
 |     |                       |  
 |     |                       |  
 |     |                       |  
 |     .-----------------------.  
 |    /                       /   
 |   /                       /    
 |  /                       /     
 | /                       /      
 |/                       /       
 *-----------------------*        

Positions:
   0 Li     1.617037    1.617037   10.000000    ( 0.0000,  0.0000,  0.0000)
   1 Li     4.851111    1.617037   10.000000    ( 0.0000,  0.0000,  0.0000)
   2 Li     8.085185    1.617037   10.000000    ( 0.0000,  0.0000,  0.0000)
   3 Li     1.617037    4.851111   10.000000    ( 0.0000,  0.0000,  0.0000)
   4 Li     4.851111    4.851111   10.000000    ( 0.0000,  0.0000,  0.0000)
   5 Li     8.085185    4.851111   10.000000    ( 0.0000,  0.0000,  0.0000)
   6 Li     1.617037    8.085185   10.000000    ( 0.0000,  0.0000,  0.0000)
   7 Li     4.851111    8.085185   10.000000    ( 0.0000,  0.0000,  0.0000)
   8 Li     8.085185    8.085185   10.000000    ( 0.0000,  0.0000,  0.0000)
   9 Li     0.000000    0.000000   11.617037    ( 0.0000,  0.0000,  0.0000)
  10 Li     3.234074    0.000000   11.617037    ( 0.0000,  0.0000,  0.0000)
  11 Li     6.468148    0.000000   11.617037    ( 0.0000,  0.0000,  0.0000)
  12 Li     0.000000    3.234074   11.617037    ( 0.0000,  0.0000,  0.0000)
  13 Li     3.234074    3.234074   11.617037    ( 0.0000,  0.0000,  0.0000)
  14 Li     6.468148    3.234074   11.617037    ( 0.0000,  0.0000,  0.0000)
  15 Li     0.000000    6.468148   11.617037    ( 0.0000,  0.0000,  0.0000)
  16 Li     3.234074    6.468148   11.617037    ( 0.0000,  0.0000,  0.0000)
  17 Li     6.468148    6.468148   11.617037    ( 0.0000,  0.0000,  0.0000)
  18 Li     1.608370    1.667856   13.704234    ( 0.0000,  0.0000,  0.0000)
  19 Li     4.826521    1.625361   13.727614    ( 0.0000,  0.0000,  0.0000)
  20 Li     8.099937    1.602110   13.893290    ( 0.0000,  0.0000,  0.0000)
  21 Li     1.562274    4.796244   13.650449    ( 0.0000,  0.0000,  0.0000)
  22 Li     4.840427    4.860151   13.741532    ( 0.0000,  0.0000,  0.0000)
  23 Li     8.077331    4.875094   13.726619    ( 0.0000,  0.0000,  0.0000)
  24 Li     1.616964    8.083576   13.767399    ( 0.0000,  0.0000,  0.0000)
  25 Li     4.906191    8.140583   13.649722    ( 0.0000,  0.0000,  0.0000)
  26 Li     8.034219    8.093373   13.704516    ( 0.0000,  0.0000,  0.0000)
  27 Li     0.111671   -0.114017   15.923412    ( 0.0000,  0.0000,  0.0000)
  28 Li     2.991107   -0.349385   15.757586    ( 0.0000,  0.0000,  0.0000)
  29 Li     6.842233    0.290350   16.037910    ( 0.0000,  0.0000,  0.0000)
  30 Li    -0.291089    2.858717   16.037715    ( 0.0000,  0.0000,  0.0000)
  31 Li     3.465142    3.596627   15.785381    ( 0.0000,  0.0000,  0.0000)
  32 Li     6.320863    3.379205   15.881405    ( 0.0000,  0.0000,  0.0000)
  33 Li     0.345707    6.707578   15.757795    ( 0.0000,  0.0000,  0.0000)
  34 Li     3.143137    6.555338   15.765847    ( 0.0000,  0.0000,  0.0000)
  35 Li     6.099701    6.231420   15.782976    ( 0.0000,  0.0000,  0.0000)
  36 N      8.275014    1.425881   15.736094    ( 0.0000,  0.0000,  0.0000)
  37 N      1.691501    8.007663   15.587865    ( 0.0000,  0.0000,  0.0000)
  38 N      4.928702    4.769453   15.590046    ( 0.0000,  0.0000,  0.0000)

Unit cell:
           periodic     x           y           z      points  spacing
  1. axis:    yes    9.702222    0.000000    0.000000    60     0.1617
  2. axis:    yes    0.000000    9.702222    0.000000    60     0.1617
  3. axis:    no     0.000000    0.000000   24.851111   156     0.1593

  Lengths:   9.702222   9.702222  24.851111
  Angles:   90.000000  90.000000  90.000000

Effective grid spacing dv^(1/3) = 0.1609

     iter     time        total  log10-change:
                         energy  eigst   dens
iter:   1 22:58:39  -250.653260  -1.06
iter:   2 22:59:59  -250.649474  -1.79  -2.06
iter:   3 23:01:19  -250.646778c -2.33  -2.23
iter:   4 23:02:46  -250.643264c -1.84  -2.34
Writing to output.gpw (mode='')

iter:   5 23:05:35  -250.643923c -2.81  -2.50
iter:   6 23:07:28  -250.642407c -2.39  -2.51
iter:   7 23:08:51  -250.642488c -2.20  -2.73
iter:   8 23:10:11  -250.642159c -3.20  -2.76
iter:   9 23:11:31  -250.642020c -3.13  -2.96
Writing to output.gpw (mode='')

iter:  10 23:12:52  -250.642089c -3.47  -3.13
iter:  11 23:14:13  -250.642042c -3.92  -3.08
iter:  12 23:15:32  -250.642033c -3.93  -3.14
iter:  13 23:18:53  -250.642130c -3.68  -3.18
iter:  14 23:20:43  -250.642046c -3.63  -3.09
Writing to output.gpw (mode='')

iter:  15 23:22:55  -250.642045c -3.75  -3.33
iter:  16 23:24:15  -250.642032c -4.79  -3.38
iter:  17 23:25:37  -250.642036c -4.56  -3.47
iter:  18 23:27:02  -250.642037c -4.30  -3.65
iter:  19 23:28:28  -250.642039c -5.17  -3.66
Writing to output.gpw (mode='')

iter:  20 23:30:07  -250.642037c -5.14  -3.81
iter:  21 23:31:37  -250.642037c -5.27  -3.88
iter:  22 23:32:58  -250.642036c -5.55  -4.19c
iter:  23 23:34:16  -250.642037c -5.93  -4.26c
iter:  24 23:35:35  -250.642037c -6.13  -4.42c
Writing to output.gpw (mode='')

iter:  25 23:37:14  -250.642037c -6.20  -4.56c
iter:  26 23:38:31  -250.642037c -6.39  -4.63c
iter:  27 23:39:42  -250.642038c -6.66  -4.82c
iter:  28 23:40:56  -250.642037c -6.79  -4.86c
iter:  29 23:42:13  -250.642037c -6.89  -4.97c
Writing to output.gpw (mode='')

iter:  30 23:43:30  -250.642037c -7.28  -5.09c
iter:  31 23:44:43  -250.642037c -7.48c -5.13c

Converged after 31 iterations.

Dipole moment: (-3.927435, 0.207550, 0.007706) |e|*Ang

Energy contributions relative to reference atoms: (reference = -11745.526041)

Kinetic:        +88.490251
Potential:      -78.308610
External:        +0.000000
XC:            -261.327890
Entropy (-ST):   -0.183703
Local:           +0.596063
--------------------------
Free energy:   -250.733889
Extrapolated:  -250.642037

Dipole-layer corrected work functions: 3.482938, 3.468123 eV

Showing only first 2 kpts
 Kpt  Band  Eigenvalues  Occupancy
  0    23     -3.66404    1.95495
  0    24     -3.51228    1.35181
  0    25     -3.44249    0.68112
  0    26     -3.43057    0.57845

  1    23     -3.82078    1.99800
  1    24     -3.70154    1.97846
  1    25     -3.58617    1.80277
  1    26     -3.34610    0.13974


Fermi level: -3.47553

No gap
Writing to output.gpw (mode='')


Forces in eV/Ang:
  0 Li   -0.00487   -0.00549   -0.29647
  1 Li    0.00837    0.00496   -0.30624
  2 Li    0.00198   -0.00189   -0.30462
  3 Li    0.00967    0.00764   -0.29078
  4 Li    0.00173   -0.00185   -0.29609
  5 Li   -0.00492   -0.00838   -0.30629
  6 Li    0.00537   -0.00538   -0.29706
  7 Li   -0.00759   -0.00959   -0.29090
  8 Li    0.00553    0.00489   -0.29638
  9 Li   -0.01086    0.01067    0.27172
 10 Li   -0.01525    0.02389    0.37914
 11 Li    0.01673    0.05293    0.35334
 12 Li   -0.05234   -0.01660    0.35355
 13 Li   -0.00466   -0.00597    0.36110
 14 Li    0.02704   -0.02731    0.28721
 15 Li   -0.02373    0.01488    0.37838
 16 Li   -0.00194    0.00195    0.26026
 17 Li    0.00571    0.00423    0.36222
 18 Li   -0.02930    0.01402    0.03355
 19 Li   -0.03623   -0.02073   -0.01621
 20 Li   -0.00116    0.00040   -0.09733
 21 Li   -0.05272    0.00163   -0.01842
 22 Li   -0.01215    0.01009   -0.16385
 23 Li    0.02066    0.03570   -0.01618
 24 Li   -0.01689    0.01700   -0.42449
 25 Li   -0.00258    0.05215   -0.01797
 26 Li   -0.01472    0.02895    0.03340
 27 Li   -0.09294    0.09403   -0.07650
 28 Li    0.02449    0.03737    0.07106
 29 Li   -0.02620   -0.06044   -0.04459
 30 Li    0.05883    0.02422   -0.04483
 31 Li    0.08593    0.00860    0.04498
 32 Li   -0.01444    0.01362    0.01733
 33 Li   -0.03312   -0.02033    0.07035
 34 Li    0.02645   -0.02585    0.04592
 35 Li    0.00302   -0.07136    0.04932
 36 N     0.21414   -0.22631   -0.11005
 37 N    -0.01292    0.01387    0.27307
 38 N    -0.02842    0.02639    0.05134

System changes: positions 

Initializing position-dependent things.

Density initialized from wave functions
       .-----------------------.  
      /|                       |  
     / |                       |  
    /  |                       |  
   /   |                       |  
  /    |                       |  
 *     |                       |  
 |     |                       |  
 |     |                       |  
 |     |                       |  
 |     |                       |  
 |     Li                      |  
 |     |      Li               |  
 |    Li  N  Li     Li         |  
 |     |                       |  
 |     |  LiLi  N LLi     Li   |  
 |     |                       |  
 |     |Li      LiLi  N Li     |  
 |     |                       |  
 |   LLi     LLi     LLi       |  
 |     |  Li      Li      Li   |  
 | Li  |   Li      Li          |  
 |     |Li      Li      Li     |  
 Li    | Li      Li            |  
 |    Li      Li      Li       |  
 |     |                       |  
 |     |                       |  
 |     |                       |  
 |     |                       |  
 |     |                       |  
 |     |                       |  
 |     .-----------------------.  
 |    /                       /   
 |   /                       /    
 |  /                       /     
 | /                       /      
 |/                       /       
 *-----------------------*        

Positions:
   0 Li     1.617037    1.617037   10.000000    ( 0.0000,  0.0000,  0.0000)
   1 Li     4.851111    1.617037   10.000000    ( 0.0000,  0.0000,  0.0000)
   2 Li     8.085185    1.617037   10.000000    ( 0.0000,  0.0000,  0.0000)
   3 Li     1.617037    4.851111   10.000000    ( 0.0000,  0.0000,  0.0000)
   4 Li     4.851111    4.851111   10.000000    ( 0.0000,  0.0000,  0.0000)
   5 Li     8.085185    4.851111   10.000000    ( 0.0000,  0.0000,  0.0000)
   6 Li     1.617037    8.085185   10.000000    ( 0.0000,  0.0000,  0.0000)
   7 Li     4.851111    8.085185   10.000000    ( 0.0000,  0.0000,  0.0000)
   8 Li     8.085185    8.085185   10.000000    ( 0.0000,  0.0000,  0.0000)
   9 Li     0.000000    0.000000   11.617037    ( 0.0000,  0.0000,  0.0000)
  10 Li     3.234074    0.000000   11.617037    ( 0.0000,  0.0000,  0.0000)
  11 Li     6.468148    0.000000   11.617037    ( 0.0000,  0.0000,  0.0000)
  12 Li     0.000000    3.234074   11.617037    ( 0.0000,  0.0000,  0.0000)
  13 Li     3.234074    3.234074   11.617037    ( 0.0000,  0.0000,  0.0000)
  14 Li     6.468148    3.234074   11.617037    ( 0.0000,  0.0000,  0.0000)
  15 Li     0.000000    6.468148   11.617037    ( 0.0000,  0.0000,  0.0000)
  16 Li     3.234074    6.468148   11.617037    ( 0.0000,  0.0000,  0.0000)
  17 Li     6.468148    6.468148   11.617037    ( 0.0000,  0.0000,  0.0000)
  18 Li     1.606132    1.668725   13.709742    ( 0.0000,  0.0000,  0.0000)
  19 Li     4.824499    1.623793   13.729510    ( 0.0000,  0.0000,  0.0000)
  20 Li     8.100388    1.601614   13.892344    ( 0.0000,  0.0000,  0.0000)
  21 Li     1.557942    4.795094   13.650111    ( 0.0000,  0.0000,  0.0000)
  22 Li     4.840021    4.860310   13.745916    ( 0.0000,  0.0000,  0.0000)
  23 Li     8.078945    4.877071   13.728460    ( 0.0000,  0.0000,  0.0000)
  24 Li     1.615307    8.085197   13.759222    ( 0.0000,  0.0000,  0.0000)
  25 Li     4.907285    8.144923   13.649382    ( 0.0000,  0.0000,  0.0000)
  26 Li     8.033293    8.095559   13.710032    ( 0.0000,  0.0000,  0.0000)
  27 Li     0.102220   -0.104528   15.916489    ( 0.0000,  0.0000,  0.0000)
  28 Li     2.985239   -0.353570   15.762231    ( 0.0000,  0.0000,  0.0000)
  29 Li     6.849489    0.293537   16.035276    ( 0.0000,  0.0000,  0.0000)
  30 Li    -0.294399    2.851315   16.035053    ( 0.0000,  0.0000,  0.0000)
  31 Li     3.472578    3.600570   15.787356    ( 0.0000,  0.0000,  0.0000)
  32 Li     6.320062    3.379795   15.879039    ( 0.0000,  0.0000,  0.0000)
  33 Li     0.349962    6.713529   15.762425    ( 0.0000,  0.0000,  0.0000)
  34 Li     3.144341    6.554022   15.768816    ( 0.0000,  0.0000,  0.0000)
  35 Li     6.095832    6.224154   15.785127    ( 0.0000,  0.0000,  0.0000)
  36 N      8.293255    1.407253   15.705759    ( 0.0000,  0.0000,  0.0000)
  37 N      1.700456    7.999218   15.588445    ( 0.0000,  0.0000,  0.0000)
  38 N      4.932810    4.765926   15.577376    ( 0.0000,  0.0000,  0.0000)

Unit cell:
           periodic     x           y           z      points  spacing
  1. axis:    yes    9.702222    0.000000    0.000000    60     0.1617
  2. axis:    yes    0.000000    9.702222    0.000000    60     0.1617
  3. axis:    no     0.000000    0.000000   24.851111   156     0.1593

  Lengths:   9.702222   9.702222  24.851111
  Angles:   90.000000  90.000000  90.000000

Effective grid spacing dv^(1/3) = 0.1609

     iter     time        total  log10-change:
                         energy  eigst   dens
iter:   1 23:46:56  -250.661509  -1.15
iter:   2 23:48:40  -250.661673  -1.91  -2.29
iter:   3 23:49:58  -250.657434c -2.11  -2.32
iter:   4 23:51:18  -250.657423c -2.57  -2.55
Writing to output.gpw (mode='')

iter:   5 23:52:40  -250.656899c -2.52  -2.59
iter:   6 23:53:59  -250.656303c -2.28  -2.63
iter:   7 23:55:28  -250.656269c -3.01  -2.85
iter:   8 23:56:45  -250.656146c -3.14  -2.97
iter:   9 23:58:08  -250.656228c -3.20  -3.14
Writing to output.gpw (mode='')

iter:  10 23:59:23  -250.656155c -3.82  -3.06
iter:  11 00:00:40  -250.656155c -3.96  -3.19
iter:  12 00:04:30  -250.656161c -4.25  -3.21
iter:  13 00:09:05  -250.656205c -3.69  -3.27
iter:  14 00:10:28  -250.656158c -3.89  -3.27
Writing to output.gpw (mode='')

iter:  15 00:12:20  -250.656163c -4.78  -3.55
iter:  16 00:13:39  -250.656190c -4.23  -3.55
iter:  17 00:14:59  -250.656162c -4.48  -3.41
iter:  18 00:16:47  -250.656163c -4.64  -3.72
iter:  19 00:18:08  -250.656165c -5.36  -3.76
Writing to output.gpw (mode='')

iter:  20 00:19:24  -250.656163c -5.06  -3.76
iter:  21 00:20:47  -250.656164c -5.36  -4.13c
iter:  22 00:22:38  -250.656164c -5.57  -4.22c
iter:  23 00:25:14  -250.656165c -5.87  -4.30c
iter:  24 00:27:28  -250.656165c -5.74  -4.34c
Writing to output.gpw (mode='')

iter:  25 00:29:42  -250.656165c -6.04  -4.41c
iter:  26 00:32:05  -250.656165c -6.33  -4.51c
iter:  27 00:33:54  -250.656165c -6.35  -4.60c
iter:  28 00:37:22  -250.656164c -6.58  -4.68c
iter:  29 00:39:45  -250.656164c -6.66  -4.86c
Writing to output.gpw (mode='')

iter:  30 00:41:53  -250.656164c -6.81  -4.94c
iter:  31 00:44:25  -250.656164c -6.97  -4.97c
iter:  32 00:45:46  -250.656164c -7.20  -4.98c
iter:  33 00:48:17  -250.656164c -7.15  -4.96c
iter:  34 00:50:03  -250.656165c -7.42c -4.91c

Converged after 34 iterations.

Dipole moment: (-3.820407, 0.106106, 0.018425) |e|*Ang

Energy contributions relative to reference atoms: (reference = -11745.526041)

Kinetic:        +89.378611
Potential:      -78.973346
External:        +0.000000
XC:            -261.565820
Entropy (-ST):   -0.183702
Local:           +0.596241
--------------------------
Free energy:   -250.748016
Extrapolated:  -250.656165

Dipole-layer corrected work functions: 3.483334, 3.447915 eV

Showing only first 2 kpts
 Kpt  Band  Eigenvalues  Occupancy
  0    23     -3.65654    1.95701
  0    24     -3.50058    1.33601
  0    25     -3.43229    0.67849
  0    26     -3.42028    0.57526

  1    23     -3.80926    1.99793
  1    24     -3.69550    1.98005
  1    25     -3.57464    1.79695
  1    26     -3.33672    0.14111


Fermi level: -3.46562

No gap
Writing to output.gpw (mode='')


Forces in eV/Ang:
  0 Li   -0.00443   -0.00519   -0.29677
  1 Li    0.00831    0.00467   -0.30706
  2 Li    0.00195   -0.00187   -0.30578
  3 Li    0.00935    0.00717   -0.29074
  4 Li    0.00218   -0.00230   -0.29716
  5 Li   -0.00462   -0.00833   -0.30711
  6 Li    0.00563   -0.00564   -0.29612
  7 Li   -0.00713   -0.00928   -0.29082
  8 Li    0.00524    0.00444   -0.29667
  9 Li   -0.01110    0.01090    0.27138
 10 Li   -0.01630    0.02642    0.37740
 11 Li    0.01631    0.05345    0.35225
 12 Li   -0.05290   -0.01623    0.35243
 13 Li   -0.00625   -0.00604    0.36266
 14 Li    0.02707   -0.02736    0.29050
 15 Li   -0.02627    0.01594    0.37668
 16 Li   -0.00094    0.00088    0.26103
 17 Li    0.00573    0.00580    0.36377
 18 Li   -0.03437    0.01449    0.03239
 19 Li   -0.03899   -0.01719   -0.01813
 20 Li   -0.01915    0.01839   -0.26733
 21 Li   -0.04907    0.00742   -0.01291
 22 Li   -0.01682    0.01540   -0.27897
 23 Li    0.01688    0.03857   -0.01782
 24 Li   -0.00990    0.01007   -0.34111
 25 Li   -0.00851    0.04826   -0.01230
 26 Li   -0.01515    0.03426    0.03220
 27 Li   -0.07365    0.07479   -0.08239
 28 Li    0.05646    0.06367    0.07277
 29 Li   -0.02723   -0.06560   -0.05082
 30 Li    0.06287    0.02383   -0.05133
 31 Li    0.05566   -0.01651    0.04401
 32 Li   -0.02593    0.02580   -0.00115
 33 Li   -0.05700   -0.05000    0.07167
 34 Li    0.02779   -0.02628    0.03230
 35 Li    0.03033   -0.03864    0.04859
 36 N     0.25983   -0.24997    0.08231
 37 N    -0.05053    0.04638    0.19462
 38 N    -0.04040    0.04808    0.13335

System changes: positions 

Initializing position-dependent things.

Density initialized from wave functions
       .-----------------------.  
      /|                       |  
     / |                       |  
    /  |                       |  
   /   |                       |  
  /    |                       |  
 *     |                       |  
 |     |                       |  
 |     |                       |  
 |     |                       |  
 |     |                       |  
 |     Li                      |  
 |     |      Li               |  
 |    Li  N  Li     Li         |  
 |     |                       |  
 |     |  LiLi  N LLi     Li   |  
 |     |                       |  
 |     |Li      LiLi  N Li     |  
 |     |                       |  
 |   LLi     LLi     LLi       |  
 |     |  Li      Li      Li   |  
 | Li  |   Li      Li          |  
 |     |Li      Li      Li     |  
 Li    | Li      Li            |  
 |    Li      Li      Li       |  
 |     |                       |  
 |     |                       |  
 |     |                       |  
 |     |                       |  
 |     |                       |  
 |     |                       |  
 |     .-----------------------.  
 |    /                       /   
 |   /                       /    
 |  /                       /     
 | /                       /      
 |/                       /       
 *-----------------------*        

Positions:
   0 Li     1.617037    1.617037   10.000000    ( 0.0000,  0.0000,  0.0000)
   1 Li     4.851111    1.617037   10.000000    ( 0.0000,  0.0000,  0.0000)
   2 Li     8.085185    1.617037   10.000000    ( 0.0000,  0.0000,  0.0000)
   3 Li     1.617037    4.851111   10.000000    ( 0.0000,  0.0000,  0.0000)
   4 Li     4.851111    4.851111   10.000000    ( 0.0000,  0.0000,  0.0000)
   5 Li     8.085185    4.851111   10.000000    ( 0.0000,  0.0000,  0.0000)
   6 Li     1.617037    8.085185   10.000000    ( 0.0000,  0.0000,  0.0000)
   7 Li     4.851111    8.085185   10.000000    ( 0.0000,  0.0000,  0.0000)
   8 Li     8.085185    8.085185   10.000000    ( 0.0000,  0.0000,  0.0000)
   9 Li     0.000000    0.000000   11.617037    ( 0.0000,  0.0000,  0.0000)
  10 Li     3.234074    0.000000   11.617037    ( 0.0000,  0.0000,  0.0000)
  11 Li     6.468148    0.000000   11.617037    ( 0.0000,  0.0000,  0.0000)
  12 Li     0.000000    3.234074   11.617037    ( 0.0000,  0.0000,  0.0000)
  13 Li     3.234074    3.234074   11.617037    ( 0.0000,  0.0000,  0.0000)
  14 Li     6.468148    3.234074   11.617037    ( 0.0000,  0.0000,  0.0000)
  15 Li     0.000000    6.468148   11.617037    ( 0.0000,  0.0000,  0.0000)
  16 Li     3.234074    6.468148   11.617037    ( 0.0000,  0.0000,  0.0000)
  17 Li     6.468148    6.468148   11.617037    ( 0.0000,  0.0000,  0.0000)
  18 Li     1.603097    1.669762   13.716498    ( 0.0000,  0.0000,  0.0000)
  19 Li     4.821995    1.622155   13.731869    ( 0.0000,  0.0000,  0.0000)
  20 Li     8.100560    1.601383   13.887961    ( 0.0000,  0.0000,  0.0000)
  21 Li     1.552858    4.794107   13.649921    ( 0.0000,  0.0000,  0.0000)
  22 Li     4.839368    4.860687   13.749657    ( 0.0000,  0.0000,  0.0000)
  23 Li     8.080628    4.879523   13.730765    ( 0.0000,  0.0000,  0.0000)
  24 Li     1.613524    8.086939   13.747225    ( 0.0000,  0.0000,  0.0000)
  25 Li     4.908198    8.150008   13.649194    ( 0.0000,  0.0000,  0.0000)
  26 Li     8.032188    8.098539   13.716796    ( 0.0000,  0.0000,  0.0000)
  27 Li     0.090779   -0.093041   15.906521    ( 0.0000,  0.0000,  0.0000)
  28 Li     2.980995   -0.356328   15.768317    ( 0.0000,  0.0000,  0.0000)
  29 Li     6.854950    0.294068   16.031631    ( 0.0000,  0.0000,  0.0000)
  30 Li    -0.295105    2.845643   16.031371    ( 0.0000,  0.0000,  0.0000)
  31 Li     3.478950    3.603046   15.788340    ( 0.0000,  0.0000,  0.0000)
  32 Li     6.319624    3.380003   15.872444    ( 0.0000,  0.0000,  0.0000)
  33 Li     0.352899    6.717956   15.768479    ( 0.0000,  0.0000,  0.0000)
  34 Li     3.145953    6.552305   15.770857    ( 0.0000,  0.0000,  0.0000)
  35 Li     6.093605    6.218178   15.786347    ( 0.0000,  0.0000,  0.0000)
  36 N      8.314886    1.385560   15.680039    ( 0.0000,  0.0000,  0.0000)
  37 N      1.706512    7.993660   15.591567    ( 0.0000,  0.0000,  0.0000)
  38 N      4.935432    4.764058   15.570425    ( 0.0000,  0.0000,  0.0000)

Unit cell:
           periodic     x           y           z      points  spacing
  1. axis:    yes    9.702222    0.000000    0.000000    60     0.1617
  2. axis:    yes    0.000000    9.702222    0.000000    60     0.1617
  3. axis:    no     0.000000    0.000000   24.851111   156     0.1593

  Lengths:   9.702222   9.702222  24.851111
  Angles:   90.000000  90.000000  90.000000

Effective grid spacing dv^(1/3) = 0.1609

     iter     time        total  log10-change:
                         energy  eigst   dens
iter:   1 00:54:26  -250.674370  -1.17
iter:   2 00:55:52  -250.674240  -1.92  -2.24
iter:   3 00:57:06  -250.671156c -2.35  -2.31
iter:   4 01:00:57  -250.669579c -1.97  -2.47
Writing to output.gpw (mode='')

iter:   5 01:02:33  -250.670141c -2.60  -2.58
iter:   6 01:05:53  -250.668461c -2.43  -2.54
iter:   7 01:07:52  -250.668570c -2.58  -2.89
iter:   8 01:09:11  -250.668537c -3.15  -2.88
iter:   9 01:10:32  -250.668423c -3.59  -2.95
Writing to output.gpw (mode='')

iter:  10 01:11:49  -250.668379c -3.56  -3.12
iter:  11 01:13:09  -250.668403c -4.12  -3.35
iter:  12 01:14:38  -250.668396c -4.29  -3.31
iter:  13 01:17:08  -250.668420c -3.93  -3.44
iter:  14 01:22:15  -250.668407c -4.51  -3.41
Writing to output.gpw (mode='')

iter:  15 01:23:52  -250.668416c -4.34  -3.61
iter:  16 01:25:49  -250.668412c -5.07  -3.67
iter:  17 01:28:52  -250.668408c -4.92  -3.75
iter:  18 01:30:28  -250.668407c -5.08  -3.88
iter:  19 01:33:02  -250.668409c -5.46  -4.02c
Writing to output.gpw (mode='')

iter:  20 01:34:22  -250.668408c -5.51  -4.08c
iter:  21 01:36:15  -250.668410c -5.67  -4.33c
iter:  22 01:37:32  -250.668409c -5.94  -4.35c
iter:  23 01:38:43  -250.668409c -6.17  -4.44c
iter:  24 01:40:00  -250.668409c -6.37  -4.50c
Writing to output.gpw (mode='')

iter:  25 01:41:50  -250.668409c -6.47  -4.63c
iter:  26 01:43:18  -250.668409c -6.61  -4.72c
iter:  27 01:45:24  -250.668409c -6.81  -4.81c
iter:  28 01:47:27  -250.668409c -6.71  -4.87c
iter:  29 01:49:19  -250.668409c -7.15  -4.99c
Writing to output.gpw (mode='')

iter:  30 01:51:13  -250.668409c -7.22  -5.07c
iter:  31 01:53:22  -250.668409c -7.48c -5.10c

Converged after 31 iterations.

Dipole moment: (-3.697825, -0.024307, 0.025224) |e|*Ang

Energy contributions relative to reference atoms: (reference = -11745.526041)

Kinetic:        +89.902872
Potential:      -79.368331
External:        +0.000000
XC:            -261.707575
Entropy (-ST):   -0.183643
Local:           +0.596446
--------------------------
Free energy:   -250.760231
Extrapolated:  -250.668409

Dipole-layer corrected work functions: 3.483789, 3.435301 eV

Showing only first 2 kpts
 Kpt  Band  Eigenvalues  Occupancy
  0    23     -3.65185    1.95817
  0    24     -3.49379    1.32967
  0    25     -3.42600    0.67660
  0    26     -3.41393    0.57305

  1    23     -3.80211    1.99789
  1    24     -3.69119    1.98074
  1    25     -3.56720    1.79193
  1    26     -3.33057    0.14093


Fermi level: -3.45954

No gap
Writing to output.gpw (mode='')


Forces in eV/Ang:
  0 Li   -0.00396   -0.00496   -0.29684
  1 Li    0.00842    0.00455   -0.30798
  2 Li    0.00177   -0.00169   -0.30658
  3 Li    0.00920    0.00692   -0.29064
  4 Li    0.00264   -0.00277   -0.29833
  5 Li   -0.00448   -0.00845   -0.30802
  6 Li    0.00602   -0.00603   -0.29467
  7 Li   -0.00689   -0.00913   -0.29069
  8 Li    0.00502    0.00397   -0.29675
  9 Li   -0.01162    0.01141    0.27023
 10 Li   -0.01738    0.02940    0.37496
 11 Li    0.01570    0.05387    0.35118
 12 Li   -0.05335   -0.01568    0.35131
 13 Li   -0.00832   -0.00645    0.36512
 14 Li    0.02706   -0.02738    0.29441
 15 Li   -0.02926    0.01701    0.37431
 16 Li    0.00004   -0.00016    0.26142
 17 Li    0.00610    0.00785    0.36619
 18 Li   -0.03951    0.01347    0.03065
 19 Li   -0.04200   -0.01490   -0.02241
 20 Li   -0.03578    0.03504   -0.38537
 21 Li   -0.04478    0.01279   -0.00793
 22 Li   -0.02043    0.01973   -0.35878
 23 Li    0.01426    0.04163   -0.02172
 24 Li   -0.00031    0.00068   -0.21409
 25 Li   -0.01399    0.04374   -0.00711
 26 Li   -0.01407    0.03961    0.03036
 27 Li   -0.03739    0.03871   -0.07693
 28 Li    0.07549    0.08121    0.07246
 29 Li   -0.00995   -0.05524   -0.06047
 30 Li    0.05346    0.00781   -0.06057
 31 Li    0.02961   -0.03648    0.04617
 32 Li   -0.04144    0.04237   -0.00919
 33 Li   -0.07277   -0.06732    0.07106
 34 Li    0.02732   -0.02472    0.02296
 35 Li    0.05224   -0.01047    0.05081
 36 N     0.22027   -0.22124    0.21896
 37 N    -0.03807    0.01817    0.08475
 38 N    -0.05310    0.04461    0.22013

System changes: positions 

Initializing position-dependent things.

Density initialized from wave functions
       .-----------------------.  
      /|                       |  
     / |                       |  
    /  |                       |  
   /   |                       |  
  /    |                       |  
 *     |                       |  
 |     |                       |  
 |     |                       |  
 |     |                       |  
 |     |                       |  
 |     Li                      |  
 |     |      Li               |  
 |    Li  N  Li     Li         |  
 |     |                       |  
 |     |  LiLi  N LLi     Li   |  
 |     |                       |  
 |     |Li      LiLi  N Li     |  
 |     |                       |  
 |   LLi     LLi     LLi       |  
 |     |  Li      Li      Li   |  
 | Li  |   Li      Li          |  
 |     |Li      Li      Li     |  
 Li    | Li      Li            |  
 |    Li      Li      Li       |  
 |     |                       |  
 |     |                       |  
 |     |                       |  
 |     |                       |  
 |     |                       |  
 |     |                       |  
 |     .-----------------------.  
 |    /                       /   
 |   /                       /    
 |  /                       /     
 | /                       /      
 |/                       /       
 *-----------------------*        

Positions:
   0 Li     1.617037    1.617037   10.000000    ( 0.0000,  0.0000,  0.0000)
   1 Li     4.851111    1.617037   10.000000    ( 0.0000,  0.0000,  0.0000)
   2 Li     8.085185    1.617037   10.000000    ( 0.0000,  0.0000,  0.0000)
   3 Li     1.617037    4.851111   10.000000    ( 0.0000,  0.0000,  0.0000)
   4 Li     4.851111    4.851111   10.000000    ( 0.0000,  0.0000,  0.0000)
   5 Li     8.085185    4.851111   10.000000    ( 0.0000,  0.0000,  0.0000)
   6 Li     1.617037    8.085185   10.000000    ( 0.0000,  0.0000,  0.0000)
   7 Li     4.851111    8.085185   10.000000    ( 0.0000,  0.0000,  0.0000)
   8 Li     8.085185    8.085185   10.000000    ( 0.0000,  0.0000,  0.0000)
   9 Li     0.000000    0.000000   11.617037    ( 0.0000,  0.0000,  0.0000)
  10 Li     3.234074    0.000000   11.617037    ( 0.0000,  0.0000,  0.0000)
  11 Li     6.468148    0.000000   11.617037    ( 0.0000,  0.0000,  0.0000)
  12 Li     0.000000    3.234074   11.617037    ( 0.0000,  0.0000,  0.0000)
  13 Li     3.234074    3.234074   11.617037    ( 0.0000,  0.0000,  0.0000)
  14 Li     6.468148    3.234074   11.617037    ( 0.0000,  0.0000,  0.0000)
  15 Li     0.000000    6.468148   11.617037    ( 0.0000,  0.0000,  0.0000)
  16 Li     3.234074    6.468148   11.617037    ( 0.0000,  0.0000,  0.0000)
  17 Li     6.468148    6.468148   11.617037    ( 0.0000,  0.0000,  0.0000)
  18 Li     1.599155    1.670995   13.723948    ( 0.0000,  0.0000,  0.0000)
  19 Li     4.818706    1.620280   13.733764    ( 0.0000,  0.0000,  0.0000)
  20 Li     8.100159    1.601710   13.877875    ( 0.0000,  0.0000,  0.0000)
  21 Li     1.546885    4.793468   13.649436    ( 0.0000,  0.0000,  0.0000)
  22 Li     4.838368    4.861394   13.750454    ( 0.0000,  0.0000,  0.0000)
  23 Li     8.082537    4.882750   13.732617    ( 0.0000,  0.0000,  0.0000)
  24 Li     1.611759    8.088670   13.730432    ( 0.0000,  0.0000,  0.0000)
  25 Li     4.908740    8.155963   13.648727    ( 0.0000,  0.0000,  0.0000)
  26 Li     8.030874    8.102427   13.724246    ( 0.0000,  0.0000,  0.0000)
  27 Li     0.078046   -0.080232   15.893463    ( 0.0000,  0.0000,  0.0000)
  28 Li     2.978843   -0.356875   15.775777    ( 0.0000,  0.0000,  0.0000)
  29 Li     6.858198    0.291533   16.026067    ( 0.0000,  0.0000,  0.0000)
  30 Li    -0.292772    2.842150   16.025769    ( 0.0000,  0.0000,  0.0000)
  31 Li     3.485193    3.604093   15.789280    ( 0.0000,  0.0000,  0.0000)
  32 Li     6.318711    3.380698   15.863379    ( 0.0000,  0.0000,  0.0000)
  33 Li     0.353802    6.720456   15.775878    ( 0.0000,  0.0000,  0.0000)
  34 Li     3.148418    6.549782   15.772651    ( 0.0000,  0.0000,  0.0000)
  35 Li     6.093139    6.212737   15.787622    ( 0.0000,  0.0000,  0.0000)
  36 N      8.340288    1.359908   15.662813    ( 0.0000,  0.0000,  0.0000)
  37 N      1.711436    7.988990   15.597904    ( 0.0000,  0.0000,  0.0000)
  38 N      4.936432    4.763503   15.568590    ( 0.0000,  0.0000,  0.0000)

Unit cell:
           periodic     x           y           z      points  spacing
  1. axis:    yes    9.702222    0.000000    0.000000    60     0.1617
  2. axis:    yes    0.000000    9.702222    0.000000    60     0.1617
  3. axis:    no     0.000000    0.000000   24.851111   156     0.1593

  Lengths:   9.702222   9.702222  24.851111
  Angles:   90.000000  90.000000  90.000000

Effective grid spacing dv^(1/3) = 0.1609

     iter     time        total  log10-change:
                         energy  eigst   dens
iter:   1 01:55:54  -250.691994  -1.10
iter:   2 01:57:12  -250.692183  -1.85  -2.21
iter:   3 01:58:37  -250.688412c -2.24  -2.26
iter:   4 02:00:02  -250.686927c -2.09  -2.46
Writing to output.gpw (mode='')

iter:   5 02:01:27  -250.686734c -2.57  -2.58
iter:   6 02:02:53  -250.685829c -2.28  -2.58
iter:   7 02:04:16  -250.685832c -3.04  -2.81
iter:   8 02:05:43  -250.686106c -2.91  -2.84
iter:   9 02:06:59  -250.685716c -3.30  -2.72
Writing to output.gpw (mode='')

iter:  10 02:08:13  -250.685735c -3.58  -3.06
iter:  11 02:09:23  -250.685686c -3.35  -3.12
iter:  12 02:11:18  -250.685680c -4.24  -3.32
iter:  13 02:12:47  -250.685685c -3.86  -3.41
iter:  14 02:14:44  -250.685695c -3.88  -3.46
Writing to output.gpw (mode='')

iter:  15 02:16:03  -250.685689c -4.47  -3.44
iter:  16 02:17:22  -250.685685c -4.85  -3.56
iter:  17 02:18:38  -250.685684c -4.71  -3.71
iter:  18 02:19:59  -250.685686c -4.99  -3.77
iter:  19 02:21:29  -250.685685c -5.36  -3.93
Writing to output.gpw (mode='')

iter:  20 02:22:48  -250.685685c -5.56  -4.08c
iter:  21 02:24:04  -250.685685c -5.74  -4.25c
iter:  22 02:25:18  -250.685685c -5.73  -4.26c
iter:  23 02:26:34  -250.685685c -6.08  -4.41c
iter:  24 02:27:48  -250.685685c -6.21  -4.59c
Writing to output.gpw (mode='')

iter:  25 02:29:01  -250.685685c -6.35  -4.60c
iter:  26 02:30:19  -250.685685c -6.42  -4.61c
iter:  27 02:31:29  -250.685685c -6.66  -4.64c
iter:  28 02:32:45  -250.685685c -6.85  -4.76c
iter:  29 02:34:02  -250.685685c -6.78  -4.91c
Writing to output.gpw (mode='')

iter:  30 02:35:26  -250.685685c -7.06  -5.06c
iter:  31 02:37:33  -250.685685c -7.21  -5.04c
iter:  32 02:40:47  -250.685685c -7.19  -5.09c
iter:  33 02:42:44  -250.685685c -7.47c -5.27c

Converged after 33 iterations.

Dipole moment: (-3.570516, -0.172874, 0.027882) |e|*Ang

Energy contributions relative to reference atoms: (reference = -11745.526041)

Kinetic:        +89.951016
Potential:      -79.413082
External:        +0.000000
XC:            -261.727144
Entropy (-ST):   -0.183574
Local:           +0.595311
--------------------------
Free energy:   -250.777472
Extrapolated:  -250.685685

Dipole-layer corrected work functions: 3.484557, 3.430958 eV

Showing only first 2 kpts
 Kpt  Band  Eigenvalues  Occupancy
  0    23     -3.65002    1.95814
  0    24     -3.49246    1.33374
  0    25     -3.42412    0.67580
  0    26     -3.41226    0.57405

  1    23     -3.79969    1.99786
  1    24     -3.68868    1.98045
  1    25     -3.56451    1.78854
  1    26     -3.32793    0.13873


Fermi level: -3.45776

No gap
Writing to output.gpw (mode='')


Forces in eV/Ang:
  0 Li   -0.00353   -0.00484   -0.29668
  1 Li    0.00878    0.00471   -0.30886
  2 Li    0.00146   -0.00139   -0.30675
  3 Li    0.00921    0.00686   -0.29036
  4 Li    0.00321   -0.00334   -0.29925
  5 Li   -0.00463   -0.00881   -0.30890
  6 Li    0.00652   -0.00654   -0.29263
  7 Li   -0.00684   -0.00914   -0.29039
  8 Li    0.00490    0.00354   -0.29658
  9 Li   -0.01233    0.01212    0.26771
 10 Li   -0.01853    0.03290    0.37138
 11 Li    0.01461    0.05397    0.34980
 12 Li   -0.05352   -0.01465    0.34991
 13 Li   -0.01117   -0.00722    0.36764
 14 Li    0.02694   -0.02730    0.29780
 15 Li   -0.03281    0.01816    0.37078
 16 Li    0.00090   -0.00107    0.26055
 17 Li    0.00681    0.01069    0.36867
 18 Li   -0.04426    0.01121    0.02835
 19 Li   -0.04497   -0.01304   -0.02786
 20 Li   -0.04088    0.04010   -0.38428
 21 Li   -0.03942    0.01805   -0.00237
 22 Li   -0.02111    0.02136   -0.38006
 23 Li    0.01211    0.04468   -0.02687
 24 Li    0.01203   -0.01139   -0.04057
 25 Li   -0.01929    0.03823   -0.00141
 26 Li   -0.01167    0.04463    0.02809
 27 Li    0.02532   -0.02422   -0.05529
 28 Li    0.07741    0.08293    0.06865
 29 Li    0.02292   -0.03284   -0.07152
 30 Li    0.03116   -0.02483   -0.07146
 31 Li    0.00291   -0.05446    0.04921
 32 Li   -0.05776    0.05959   -0.00913
 33 Li   -0.07543   -0.06993    0.06743
 34 Li    0.02577   -0.02231    0.01696
 35 Li    0.06859    0.01385    0.05296
 36 N     0.20424   -0.20704    0.28038
 37 N    -0.02961    0.01250   -0.07786
 38 N    -0.04877    0.03656    0.23984

System changes: positions 

Initializing position-dependent things.

Density initialized from wave functions
       .-----------------------.  
      /|                       |  
     / |                       |  
    /  |                       |  
   /   |                       |  
  /    |                       |  
 *     |                       |  
 |     |                       |  
 |     |                       |  
 |     |                       |  
 |     |                       |  
 |     Li                      |  
 |     |      Li               |  
 |    Li  N  Li     Li         |  
 |     |                       |  
 |     |  LiLi  N LLi     Li   |  
 |     |                       |  
 |     |Li      LiLi   NLi     |  
 |     |                       |  
 |   LLi     LLi     LLi       |  
 |     |  Li      Li      Li   |  
 | Li  |   Li      Li          |  
 |     |Li      Li      Li     |  
 Li    | Li      Li            |  
 |    Li      Li      Li       |  
 |     |                       |  
 |     |                       |  
 |     |                       |  
 |     |                       |  
 |     |                       |  
 |     |                       |  
 |     .-----------------------.  
 |    /                       /   
 |   /                       /    
 |  /                       /     
 | /                       /      
 |/                       /       
 *-----------------------*        

Positions:
   0 Li     1.617037    1.617037   10.000000    ( 0.0000,  0.0000,  0.0000)
   1 Li     4.851111    1.617037   10.000000    ( 0.0000,  0.0000,  0.0000)
   2 Li     8.085185    1.617037   10.000000    ( 0.0000,  0.0000,  0.0000)
   3 Li     1.617037    4.851111   10.000000    ( 0.0000,  0.0000,  0.0000)
   4 Li     4.851111    4.851111   10.000000    ( 0.0000,  0.0000,  0.0000)
   5 Li     8.085185    4.851111   10.000000    ( 0.0000,  0.0000,  0.0000)
   6 Li     1.617037    8.085185   10.000000    ( 0.0000,  0.0000,  0.0000)
   7 Li     4.851111    8.085185   10.000000    ( 0.0000,  0.0000,  0.0000)
   8 Li     8.085185    8.085185   10.000000    ( 0.0000,  0.0000,  0.0000)
   9 Li     0.000000    0.000000   11.617037    ( 0.0000,  0.0000,  0.0000)
  10 Li     3.234074    0.000000   11.617037    ( 0.0000,  0.0000,  0.0000)
  11 Li     6.468148    0.000000   11.617037    ( 0.0000,  0.0000,  0.0000)
  12 Li     0.000000    3.234074   11.617037    ( 0.0000,  0.0000,  0.0000)
  13 Li     3.234074    3.234074   11.617037    ( 0.0000,  0.0000,  0.0000)
  14 Li     6.468148    3.234074   11.617037    ( 0.0000,  0.0000,  0.0000)
  15 Li     0.000000    6.468148   11.617037    ( 0.0000,  0.0000,  0.0000)
  16 Li     3.234074    6.468148   11.617037    ( 0.0000,  0.0000,  0.0000)
  17 Li     6.468148    6.468148   11.617037    ( 0.0000,  0.0000,  0.0000)
  18 Li     1.594599    1.672216   13.731287    ( 0.0000,  0.0000,  0.0000)
  19 Li     4.814871    1.618148   13.734579    ( 0.0000,  0.0000,  0.0000)
  20 Li     8.099268    1.602516   13.862966    ( 0.0000,  0.0000,  0.0000)
  21 Li     1.540431    4.793152   13.648361    ( 0.0000,  0.0000,  0.0000)
  22 Li     4.837159    4.862315   13.750029    ( 0.0000,  0.0000,  0.0000)
  23 Li     8.084691    4.886520   13.733403    ( 0.0000,  0.0000,  0.0000)
  24 Li     1.610096    8.090311   13.712681    ( 0.0000,  0.0000,  0.0000)
  25 Li     4.908940    8.162383   13.647683    ( 0.0000,  0.0000,  0.0000)
  26 Li     8.029566    8.106933   13.731582    ( 0.0000,  0.0000,  0.0000)
  27 Li     0.066128   -0.068220   15.879299    ( 0.0000,  0.0000,  0.0000)
  28 Li     2.977038   -0.356455   15.784368    ( 0.0000,  0.0000,  0.0000)
  29 Li     6.860608    0.287704   16.018417    ( 0.0000,  0.0000,  0.0000)
  30 Li    -0.289167    2.839470   16.018084    ( 0.0000,  0.0000,  0.0000)
  31 Li     3.491068    3.603667   15.790822    ( 0.0000,  0.0000,  0.0000)
  32 Li     6.316999    3.382217   15.854114    ( 0.0000,  0.0000,  0.0000)
  33 Li     0.353827    6.722699   15.784394    ( 0.0000,  0.0000,  0.0000)
  34 Li     3.150955    6.547239   15.775559    ( 0.0000,  0.0000,  0.0000)
  35 Li     6.094340    6.207888   15.789553    ( 0.0000,  0.0000,  0.0000)
  36 N      8.367826    1.332065   15.654665    ( 0.0000,  0.0000,  0.0000)
  37 N      1.716543    7.984117   15.602089    ( 0.0000,  0.0000,  0.0000)
  38 N      4.936710    4.763507   15.570176    ( 0.0000,  0.0000,  0.0000)

Unit cell:
           periodic     x           y           z      points  spacing
  1. axis:    yes    9.702222    0.000000    0.000000    60     0.1617
  2. axis:    yes    0.000000    9.702222    0.000000    60     0.1617
  3. axis:    no     0.000000    0.000000   24.851111   156     0.1593

  Lengths:   9.702222   9.702222  24.851111
  Angles:   90.000000  90.000000  90.000000

Effective grid spacing dv^(1/3) = 0.1609

     iter     time        total  log10-change:
                         energy  eigst   dens
iter:   1 02:45:04  -250.705527  -1.06
iter:   2 02:48:10  -250.705521  -1.80  -2.18
iter:   3 02:50:01  -250.701531c -2.19  -2.23
iter:   4 02:51:59  -250.699764c -2.12  -2.44
Writing to output.gpw (mode='')

iter:   5 02:54:20  -250.699234c -2.41  -2.55
iter:   6 02:56:11  -250.698919c -2.18  -2.64
iter:   7 02:57:43  -250.698979c -2.87  -2.76
iter:   8 03:02:44  -250.699246c -2.91  -2.75
iter:   9 03:05:53  -250.698691c -3.22  -2.67
Writing to output.gpw (mode='')

iter:  10 03:07:07  -250.698661c -3.52  -3.07
iter:  11 03:09:00  -250.698689c -3.26  -3.20
iter:  12 03:10:56  -250.698691c -3.60  -3.26
iter:  13 03:12:36  -250.698672c -3.99  -3.28
iter:  14 03:14:58  -250.698675c -4.34  -3.45
Writing to output.gpw (mode='')

iter:  15 03:16:52  -250.698683c -4.51  -3.50
iter:  16 03:19:16  -250.698664c -4.66  -3.56
iter:  17 03:21:06  -250.698666c -4.96  -3.90
iter:  18 03:22:36  -250.698667c -5.33  -3.89
iter:  19 03:24:53  -250.698670c -5.33  -3.99
Writing to output.gpw (mode='')

iter:  20 03:26:47  -250.698669c -5.50  -4.12c
iter:  21 03:28:59  -250.698669c -5.65  -4.17c
iter:  22 03:31:05  -250.698669c -5.74  -4.25c
iter:  23 03:33:21  -250.698669c -5.87  -4.36c
iter:  24 03:35:14  -250.698669c -6.25  -4.49c
Writing to output.gpw (mode='')

iter:  25 03:37:55  -250.698669c -6.18  -4.51c
iter:  26 03:39:56  -250.698668c -6.29  -4.53c
iter:  27 03:41:37  -250.698669c -6.45  -4.67c
iter:  28 03:43:36  -250.698669c -6.54  -4.73c
iter:  29 03:46:30  -250.698670c -6.82  -4.74c
Writing to output.gpw (mode='')

iter:  30 03:48:55  -250.698669c -6.89  -4.93c
iter:  31 03:51:45  -250.698670c -6.99  -5.03c
iter:  32 03:55:40  -250.698670c -7.26  -5.04c
iter:  33 03:57:25  -250.698670c -7.30  -5.06c
iter:  34 03:58:37  -250.698669c -7.43c -5.21c

Converged after 34 iterations.

Dipole moment: (-3.456769, -0.308001, 0.028420) |e|*Ang

Energy contributions relative to reference atoms: (reference = -11745.526041)

Kinetic:        +89.801542
Potential:      -79.308630
External:        +0.000000
XC:            -261.695352
Entropy (-ST):   -0.183503
Local:           +0.595523
--------------------------
Free energy:   -250.790421
Extrapolated:  -250.698669

Dipole-layer corrected work functions: 3.485497, 3.430864 eV

Showing only first 2 kpts
 Kpt  Band  Eigenvalues  Occupancy
  0    23     -3.64949    1.95734
  0    24     -3.49397    1.34335
  0    25     -3.42470    0.67713
  0    26     -3.41311    0.57754

  1    23     -3.79970    1.99784
  1    24     -3.68720    1.97970
  1    25     -3.56431    1.78616
  1    26     -3.32719    0.13576


Fermi level: -3.45818

No gap
Writing to output.gpw (mode='')


Forces in eV/Ang:
  0 Li   -0.00312   -0.00482   -0.29636
  1 Li    0.00930    0.00504   -0.30957
  2 Li    0.00109   -0.00104   -0.30620
  3 Li    0.00929    0.00692   -0.28999
  4 Li    0.00385   -0.00397   -0.29992
  5 Li   -0.00496   -0.00933   -0.30962
  6 Li    0.00704   -0.00706   -0.29049
  7 Li   -0.00690   -0.00922   -0.29000
  8 Li    0.00488    0.00313   -0.29625
  9 Li   -0.01285    0.01264    0.26439
 10 Li   -0.02006    0.03642    0.36680
 11 Li    0.01315    0.05372    0.34808
 12 Li   -0.05334   -0.01326    0.34818
 13 Li   -0.01440   -0.00801    0.36986
 14 Li    0.02655   -0.02694    0.30039
 15 Li   -0.03638    0.01968    0.36627
 16 Li    0.00164   -0.00185    0.25893
 17 Li    0.00753    0.01391    0.37085
 18 Li   -0.04838    0.00811    0.02607
 19 Li   -0.04755   -0.01098   -0.03285
 20 Li   -0.02948    0.02857   -0.26946
 21 Li   -0.03321    0.02342    0.00443
 22 Li   -0.01993    0.02124   -0.36560
 23 Li    0.00979    0.04736   -0.03159
 24 Li    0.02407   -0.02308    0.11296
 25 Li   -0.02465    0.03194    0.00547
 26 Li   -0.00843    0.04904    0.02592
 27 Li    0.11916   -0.11836   -0.02197
 28 Li    0.07262    0.07748    0.06113
 29 Li    0.05821   -0.00979   -0.07894
 30 Li    0.00805   -0.06003   -0.07876
 31 Li   -0.02095   -0.06855    0.05128
 32 Li   -0.07107    0.07370   -0.00414
 33 Li   -0.07171   -0.06646    0.06021
 34 Li    0.02632   -0.02208    0.00922
 35 Li    0.07891    0.03261    0.05356
 36 N     0.08985   -0.11173    0.17272
 37 N    -0.01912    0.01401   -0.22369
 38 N    -0.04770    0.03936    0.21266

System changes: positions 

Initializing position-dependent things.

Density initialized from wave functions
       .-----------------------.  
      /|                       |  
     / |                       |  
    /  |                       |  
   /   |                       |  
  /    |                       |  
 *     |                       |  
 |     |                       |  
 |     |                       |  
 |     |                       |  
 |     |                       |  
 |     Li                      |  
 |     |      Li               |  
 |    Li  N  Li     Li         |  
 |     |                       |  
 |     |  LiLi  N LLi     Li   |  
 |     |                       |  
 |     |Li      LiLi   NLi     |  
 |     |                       |  
 |   LLi     LLi     LLi       |  
 |     |  Li      Li      Li   |  
 | Li  |   Li      Li          |  
 |     |Li      Li      Li     |  
 Li    | Li      Li            |  
 |    Li      Li      Li       |  
 |     |                       |  
 |     |                       |  
 |     |                       |  
 |     |                       |  
 |     |                       |  
 |     |                       |  
 |     .-----------------------.  
 |    /                       /   
 |   /                       /    
 |  /                       /     
 | /                       /      
 |/                       /       
 *-----------------------*        

Positions:
   0 Li     1.617037    1.617037   10.000000    ( 0.0000,  0.0000,  0.0000)
   1 Li     4.851111    1.617037   10.000000    ( 0.0000,  0.0000,  0.0000)
   2 Li     8.085185    1.617037   10.000000    ( 0.0000,  0.0000,  0.0000)
   3 Li     1.617037    4.851111   10.000000    ( 0.0000,  0.0000,  0.0000)
   4 Li     4.851111    4.851111   10.000000    ( 0.0000,  0.0000,  0.0000)
   5 Li     8.085185    4.851111   10.000000    ( 0.0000,  0.0000,  0.0000)
   6 Li     1.617037    8.085185   10.000000    ( 0.0000,  0.0000,  0.0000)
   7 Li     4.851111    8.085185   10.000000    ( 0.0000,  0.0000,  0.0000)
   8 Li     8.085185    8.085185   10.000000    ( 0.0000,  0.0000,  0.0000)
   9 Li     0.000000    0.000000   11.617037    ( 0.0000,  0.0000,  0.0000)
  10 Li     3.234074    0.000000   11.617037    ( 0.0000,  0.0000,  0.0000)
  11 Li     6.468148    0.000000   11.617037    ( 0.0000,  0.0000,  0.0000)
  12 Li     0.000000    3.234074   11.617037    ( 0.0000,  0.0000,  0.0000)
  13 Li     3.234074    3.234074   11.617037    ( 0.0000,  0.0000,  0.0000)
  14 Li     6.468148    3.234074   11.617037    ( 0.0000,  0.0000,  0.0000)
  15 Li     0.000000    6.468148   11.617037    ( 0.0000,  0.0000,  0.0000)
  16 Li     3.234074    6.468148   11.617037    ( 0.0000,  0.0000,  0.0000)
  17 Li     6.468148    6.468148   11.617037    ( 0.0000,  0.0000,  0.0000)
  18 Li     1.592554    1.672843   13.730890    ( 0.0000,  0.0000,  0.0000)
  19 Li     4.812104    1.616830   13.730468    ( 0.0000,  0.0000,  0.0000)
  20 Li     8.098098    1.603632   13.852736    ( 0.0000,  0.0000,  0.0000)
  21 Li     1.537805    4.794162   13.646289    ( 0.0000,  0.0000,  0.0000)
  22 Li     4.836199    4.863269   13.735691    ( 0.0000,  0.0000,  0.0000)
  23 Li     8.085959    4.889269   13.729346    ( 0.0000,  0.0000,  0.0000)
  24 Li     1.610311    8.090151   13.697006    ( 0.0000,  0.0000,  0.0000)
  25 Li     4.907856    8.164936   13.645670    ( 0.0000,  0.0000,  0.0000)
  26 Li     8.028908    8.108993   13.731171    ( 0.0000,  0.0000,  0.0000)
  27 Li     0.068645   -0.070654   15.878639    ( 0.0000,  0.0000,  0.0000)
  28 Li     2.979120   -0.352788   15.789549    ( 0.0000,  0.0000,  0.0000)
  29 Li     6.857939    0.283205   16.014068    ( 0.0000,  0.0000,  0.0000)
  30 Li    -0.284788    2.842002   16.013729    ( 0.0000,  0.0000,  0.0000)
  31 Li     3.495352    3.602155   15.796700    ( 0.0000,  0.0000,  0.0000)
  32 Li     6.313120    3.386190   15.861023    ( 0.0000,  0.0000,  0.0000)
  33 Li     0.350545    6.720999   15.789510    ( 0.0000,  0.0000,  0.0000)
  34 Li     3.152274    6.546120   15.782031    ( 0.0000,  0.0000,  0.0000)
  35 Li     6.096802    6.204714   15.795707    ( 0.0000,  0.0000,  0.0000)
  36 N      8.377213    1.322141   15.664726    ( 0.0000,  0.0000,  0.0000)
  37 N      1.716470    7.984309   15.603279    ( 0.0000,  0.0000,  0.0000)
  38 N      4.932109    4.768021   15.570331    ( 0.0000,  0.0000,  0.0000)

Unit cell:
           periodic     x           y           z      points  spacing
  1. axis:    yes    9.702222    0.000000    0.000000    60     0.1617
  2. axis:    yes    0.000000    9.702222    0.000000    60     0.1617
  3. axis:    no     0.000000    0.000000   24.851111   156     0.1593

  Lengths:   9.702222   9.702222  24.851111
  Angles:   90.000000  90.000000  90.000000

Effective grid spacing dv^(1/3) = 0.1609

     iter     time        total  log10-change:
                         energy  eigst   dens
iter:   1 04:00:03  -250.731792  -1.33
iter:   2 04:01:11  -250.710904  -2.10  -1.89
iter:   3 04:02:26  -250.710887c -2.67  -2.43
iter:   4 04:04:12  -250.709353c -2.42  -2.49
Writing to output.gpw (mode='')

iter:   5 04:05:27  -250.709307c -2.98  -2.73
iter:   6 04:06:40  -250.709178c -2.96  -2.80
iter:   7 04:07:50  -250.709219c -2.69  -2.97
iter:   8 04:10:17  -250.709210c -3.47  -3.00
iter:   9 04:11:42  -250.709131c -3.59  -3.03
Writing to output.gpw (mode='')

iter:  10 04:14:07  -250.709144c -3.98  -3.31
iter:  11 04:15:28  -250.709146c -4.30  -3.26
iter:  12 04:18:39  -250.709139c -4.46  -3.29
iter:  13 04:19:57  -250.709148c -4.42  -3.36
iter:  14 04:21:15  -250.709148c -4.06  -3.51
Writing to output.gpw (mode='')

iter:  15 04:22:27  -250.709144c -4.52  -3.56
iter:  16 04:24:36  -250.709146c -5.18  -3.70
iter:  17 04:25:43  -250.709151c -4.73  -3.72
iter:  18 04:26:54  -250.709146c -4.90  -3.65
iter:  19 04:28:03  -250.709146c -5.69  -4.05c
Writing to output.gpw (mode='')

iter:  20 04:29:12  -250.709146c -5.91  -4.07c
iter:  21 04:30:24  -250.709147c -5.32  -4.12c
iter:  22 04:32:12  -250.709145c -6.06  -4.17c
iter:  23 04:33:22  -250.709145c -5.90  -4.43c
iter:  24 04:34:38  -250.709145c -5.75  -4.52c
Writing to output.gpw (mode='')

iter:  25 04:36:20  -250.709145c -6.41  -4.43c
iter:  26 04:38:16  -250.709145c -6.18  -4.80c
iter:  27 04:39:24  -250.709146c -6.89  -4.71c
iter:  28 04:40:46  -250.709146c -7.08  -4.78c
iter:  29 04:42:07  -250.709146c -7.01  -4.87c
Writing to output.gpw (mode='')

iter:  30 04:43:34  -250.709146c -7.13  -5.04c
iter:  31 04:45:32  -250.709146c -7.33  -5.15c
iter:  32 04:47:45  -250.709146c -7.50c -5.33c

Converged after 32 iterations.

Dipole moment: (-3.519593, -0.261791, 0.028530) |e|*Ang

Energy contributions relative to reference atoms: (reference = -11745.526041)

Kinetic:        +88.956735
Potential:      -78.695584
External:        +0.000000
XC:            -261.473508
Entropy (-ST):   -0.183510
Local:           +0.594967
--------------------------
Free energy:   -250.800901
Extrapolated:  -250.709146

Dipole-layer corrected work functions: 3.487142, 3.432297 eV

Showing only first 2 kpts
 Kpt  Band  Eigenvalues  Occupancy
  0    23     -3.64810    1.95483
  0    24     -3.49549    1.34323
  0    25     -3.42589    0.67404
  0    26     -3.41583    0.58730

  1    23     -3.79923    1.99775
  1    24     -3.68468    1.97801
  1    25     -3.56704    1.79066
  1    26     -3.32597    0.12893


Fermi level: -3.45972

No gap
Writing to output.gpw (mode='')


Forces in eV/Ang:
  0 Li   -0.00298   -0.00486   -0.29552
  1 Li    0.00963    0.00553   -0.30886
  2 Li    0.00085   -0.00081   -0.30494
  3 Li    0.00945    0.00702   -0.28892
  4 Li    0.00421   -0.00431   -0.29842
  5 Li   -0.00545   -0.00966   -0.30893
  6 Li    0.00717   -0.00718   -0.28847
  7 Li   -0.00699   -0.00938   -0.28893
  8 Li    0.00492    0.00299   -0.29541
  9 Li   -0.01385    0.01365    0.26020
 10 Li   -0.02016    0.03804    0.36130
 11 Li    0.01230    0.05299    0.34603
 12 Li   -0.05270   -0.01247    0.34616
 13 Li   -0.01724   -0.00932    0.36596
 14 Li    0.02707   -0.02744    0.29651
 15 Li   -0.03804    0.01979    0.36081
 16 Li    0.00103   -0.00126    0.25206
 17 Li    0.00881    0.01675    0.36691
 18 Li   -0.04857    0.00456    0.02908
 19 Li   -0.04533   -0.00835   -0.02854
 20 Li   -0.00737    0.00629   -0.10747
 21 Li   -0.02737    0.02450    0.01138
 22 Li   -0.01348    0.01547   -0.24180
 23 Li    0.00722    0.04529   -0.02734
 24 Li    0.02983   -0.02865    0.22183
 25 Li   -0.02568    0.02618    0.01230
 26 Li   -0.00479    0.04948    0.02915
 27 Li    0.13916   -0.13888   -0.01322
 28 Li    0.05014    0.05216    0.04725
 29 Li    0.08282    0.00712   -0.07993
 30 Li   -0.01056   -0.08690   -0.08026
 31 Li   -0.03834   -0.07091    0.03906
 32 Li   -0.07571    0.07833   -0.01788
 33 Li   -0.04845   -0.04570    0.04670
 34 Li    0.02650   -0.02220   -0.00566
 35 Li    0.07493    0.04184    0.03961
 36 N     0.04431   -0.04617   -0.00059
 37 N    -0.01742    0.01516   -0.29520
 38 N    -0.01188    0.02720    0.13454

System changes: positions 

Initializing position-dependent things.

Density initialized from wave functions
       .-----------------------.  
      /|                       |  
     / |                       |  
    /  |                       |  
   /   |                       |  
  /    |                       |  
 *     |                       |  
 |     |                       |  
 |     |                       |  
 |     |                       |  
 |     |                       |  
 |     Li                      |  
 |     |      Li               |  
 |    Li  N  Li     Li         |  
 |     |                       |  
 |     |  LiLi  N LLi     Li   |  
 |     |                       |  
 |     |Li      LiLi   NLi     |  
 |     |                       |  
 |   LLi     LLi     LLi       |  
 |     |  Li      Li      Li   |  
 | Li  |   Li      Li          |  
 |     |Li      Li      Li     |  
 Li    | Li      Li            |  
 |    Li      Li      Li       |  
 |     |                       |  
 |     |                       |  
 |     |                       |  
 |     |                       |  
 |     |                       |  
 |     |                       |  
 |     .-----------------------.  
 |    /                       /   
 |   /                       /    
 |  /                       /     
 | /                       /      
 |/                       /       
 *-----------------------*        

Positions:
   0 Li     1.617037    1.617037   10.000000    ( 0.0000,  0.0000,  0.0000)
   1 Li     4.851111    1.617037   10.000000    ( 0.0000,  0.0000,  0.0000)
   2 Li     8.085185    1.617037   10.000000    ( 0.0000,  0.0000,  0.0000)
   3 Li     1.617037    4.851111   10.000000    ( 0.0000,  0.0000,  0.0000)
   4 Li     4.851111    4.851111   10.000000    ( 0.0000,  0.0000,  0.0000)
   5 Li     8.085185    4.851111   10.000000    ( 0.0000,  0.0000,  0.0000)
   6 Li     1.617037    8.085185   10.000000    ( 0.0000,  0.0000,  0.0000)
   7 Li     4.851111    8.085185   10.000000    ( 0.0000,  0.0000,  0.0000)
   8 Li     8.085185    8.085185   10.000000    ( 0.0000,  0.0000,  0.0000)
   9 Li     0.000000    0.000000   11.617037    ( 0.0000,  0.0000,  0.0000)
  10 Li     3.234074    0.000000   11.617037    ( 0.0000,  0.0000,  0.0000)
  11 Li     6.468148    0.000000   11.617037    ( 0.0000,  0.0000,  0.0000)
  12 Li     0.000000    3.234074   11.617037    ( 0.0000,  0.0000,  0.0000)
  13 Li     3.234074    3.234074   11.617037    ( 0.0000,  0.0000,  0.0000)
  14 Li     6.468148    3.234074   11.617037    ( 0.0000,  0.0000,  0.0000)
  15 Li     0.000000    6.468148   11.617037    ( 0.0000,  0.0000,  0.0000)
  16 Li     3.234074    6.468148   11.617037    ( 0.0000,  0.0000,  0.0000)
  17 Li     6.468148    6.468148   11.617037    ( 0.0000,  0.0000,  0.0000)
  18 Li     1.590279    1.673140   13.731435    ( 0.0000,  0.0000,  0.0000)
  19 Li     4.809658    1.615751   13.727382    ( 0.0000,  0.0000,  0.0000)
  20 Li     8.097294    1.604383   13.843485    ( 0.0000,  0.0000,  0.0000)
  21 Li     1.535562    4.795122   13.644971    ( 0.0000,  0.0000,  0.0000)
  22 Li     4.835415    4.864071   13.728103    ( 0.0000,  0.0000,  0.0000)
  23 Li     8.086994    4.891700   13.726307    ( 0.0000,  0.0000,  0.0000)
  24 Li     1.610681    8.089830   13.691831    ( 0.0000,  0.0000,  0.0000)
  25 Li     4.906828    8.167119   13.644400    ( 0.0000,  0.0000,  0.0000)
  26 Li     8.028585    8.111291   13.731710    ( 0.0000,  0.0000,  0.0000)
  27 Li     0.072363   -0.074316   15.877195    ( 0.0000,  0.0000,  0.0000)
  28 Li     2.979577   -0.350597   15.794123    ( 0.0000,  0.0000,  0.0000)
  29 Li     6.857941    0.280752   16.009069    ( 0.0000,  0.0000,  0.0000)
  30 Li    -0.282480    2.841828   16.008717    ( 0.0000,  0.0000,  0.0000)
  31 Li     3.496649    3.599345   15.800952    ( 0.0000,  0.0000,  0.0000)
  32 Li     6.309371    3.390022   15.864345    ( 0.0000,  0.0000,  0.0000)
  33 Li     0.348633    6.720833   15.794035    ( 0.0000,  0.0000,  0.0000)
  34 Li     3.152828    6.545746   15.786825    ( 0.0000,  0.0000,  0.0000)
  35 Li     6.100209    6.204095   15.800135    ( 0.0000,  0.0000,  0.0000)
  36 N      8.383964    1.315121   15.671967    ( 0.0000,  0.0000,  0.0000)
  37 N      1.717743    7.983135   15.596559    ( 0.0000,  0.0000,  0.0000)
  38 N      4.930000    4.770443   15.572445    ( 0.0000,  0.0000,  0.0000)

Unit cell:
           periodic     x           y           z      points  spacing
  1. axis:    yes    9.702222    0.000000    0.000000    60     0.1617
  2. axis:    yes    0.000000    9.702222    0.000000    60     0.1617
  3. axis:    no     0.000000    0.000000   24.851111   156     0.1593

  Lengths:   9.702222   9.702222  24.851111
  Angles:   90.000000  90.000000  90.000000

Effective grid spacing dv^(1/3) = 0.1609

     iter     time        total  log10-change:
                         energy  eigst   dens
iter:   1 04:49:59  -250.725359  -1.67
iter:   2 04:51:49  -250.717541  -2.38  -2.11
iter:   3 04:53:42  -250.717523c -2.94  -2.58
iter:   4 04:55:04  -250.716834c -2.69  -2.65
Writing to output.gpw (mode='')

iter:   5 04:56:47  -250.716839c -3.57  -2.87
iter:   6 04:58:43  -250.716746c -3.04  -2.91
iter:   7 05:02:25  -250.716723c -2.93  -3.05
iter:   8 05:07:18  -250.716772c -3.39  -3.17
iter:   9 05:10:03  -250.716733c -4.03  -3.08
Writing to output.gpw (mode='')

iter:  10 05:11:42  -250.716688c -4.05  -3.20
iter:  11 05:14:17  -250.716693c -4.80  -3.48
iter:  12 05:17:49  -250.716690c -4.49  -3.48
iter:  13 05:20:05  -250.716697c -4.13  -3.63
iter:  14 05:21:54  -250.716693c -5.15  -3.62
Writing to output.gpw (mode='')

iter:  15 05:23:42  -250.716693c -5.37  -3.71
iter:  16 05:25:54  -250.716692c -5.30  -3.77
iter:  17 05:30:44  -250.716692c -5.76  -3.86
iter:  18 05:33:46  -250.716699c -5.53  -3.89
iter:  19 05:35:43  -250.716695c -5.38  -3.84
Writing to output.gpw (mode='')

iter:  20 05:37:48  -250.716692c -5.36  -4.24c
iter:  21 05:39:37  -250.716693c -6.40  -4.23c
iter:  22 05:41:31  -250.716693c -6.25  -4.36c
iter:  23 05:43:14  -250.716693c -6.27  -4.52c
iter:  24 05:46:44  -250.716693c -6.76  -4.65c
Writing to output.gpw (mode='')

iter:  25 05:48:50  -250.716694c -6.79  -4.69c
iter:  26 05:51:00  -250.716694c -6.77  -4.76c
iter:  27 05:54:15  -250.716694c -6.97  -4.85c
iter:  28 05:57:37  -250.716694c -7.11  -4.92c
iter:  29 06:00:04  -250.716694c -7.36  -4.94c
Writing to output.gpw (mode='')

iter:  30 06:03:41  -250.716694c -7.55c -4.99c

Converged after 30 iterations.

Dipole moment: (-3.590246, -0.195417, 0.029178) |e|*Ang

Energy contributions relative to reference atoms: (reference = -11745.526041)

Kinetic:        +88.517983
Potential:      -78.377378
External:        +0.000000
XC:            -261.360269
Entropy (-ST):   -0.183466
Local:           +0.594703
--------------------------
Free energy:   -250.808427
Extrapolated:  -250.716694

Dipole-layer corrected work functions: 3.488127, 3.432036 eV

Showing only first 2 kpts
 Kpt  Band  Eigenvalues  Occupancy
  0    23     -3.64729    1.95378
  0    24     -3.49568    1.34166
  0    25     -3.42619    0.67350
  0    26     -3.41669    0.59141

  1    23     -3.79838    1.99770
  1    24     -3.68306    1.97713
  1    25     -3.56787    1.79240
  1    26     -3.32488    0.12547


Fermi level: -3.46008

No gap

Forces in eV/Ang:
  0 Li   -0.00283   -0.00487   -0.29523
  1 Li    0.00986    0.00580   -0.30834
  2 Li    0.00073   -0.00070   -0.30391
  3 Li    0.00946    0.00706   -0.28844
  4 Li    0.00449   -0.00458   -0.29749
  5 Li   -0.00571   -0.00989   -0.30841
  6 Li    0.00724   -0.00725   -0.28785
  7 Li   -0.00703   -0.00939   -0.28845
  8 Li    0.00493    0.00283   -0.29512
  9 Li   -0.01348    0.01329    0.25807
 10 Li   -0.02126    0.03859    0.35799
 11 Li    0.01139    0.05224    0.34457
 12 Li   -0.05201   -0.01160    0.34471
 13 Li   -0.01936   -0.00993    0.36397
 14 Li    0.02693   -0.02730    0.29409
 15 Li   -0.03863    0.02091    0.35754
 16 Li    0.00030   -0.00055    0.24867
 17 Li    0.00941    0.01889    0.36488
 18 Li   -0.04804    0.00244    0.03014
 19 Li   -0.04371   -0.00632   -0.02537
 20 Li    0.00886   -0.01010    0.00908
 21 Li   -0.02318    0.02550    0.01644
 22 Li   -0.00971    0.01212   -0.16435
 23 Li    0.00515    0.04375   -0.02417
 24 Li    0.03087   -0.02961    0.22742
 25 Li   -0.02663    0.02201    0.01731
 26 Li   -0.00258    0.04911    0.03030
 27 Li    0.14458   -0.14456   -0.01039
 28 Li    0.03717    0.03486    0.03539
 29 Li    0.08889    0.01217   -0.07565
 30 Li   -0.01593   -0.09347   -0.07603
 31 Li   -0.03695   -0.06247    0.02968
 32 Li   -0.07258    0.07538   -0.02201
 33 Li   -0.03247   -0.03395    0.03505
 34 Li    0.03055   -0.02612   -0.01897
 35 Li    0.06435    0.03768    0.02956
 36 N     0.04966   -0.03090   -0.11613
 37 N    -0.02687    0.02445   -0.26093
 38 N     0.00576    0.00968    0.07119

System changes: positions 

Initializing position-dependent things.

Density initialized from wave functions
       .-----------------------.  
      /|                       |  
     / |                       |  
    /  |                       |  
   /   |                       |  
  /    |                       |  
 *     |                       |  
 |     |                       |  
 |     |                       |  
 |     |                       |  
 |     |                       |  
 |     Li     Li               |  
 |     |                       |  
 |    Li  N  Li     Li         |  
 |     |                       |  
 |     |  LiLi  N LLi     Li   |  
 |     |                       |  
 |     |Li      LiLi   NLi     |  
 |     |                       |  
[...]
iter:   4 23:11:45  -251.964885c -2.61  -2.51
Writing to output.gpw (mode='')

iter:   5 23:14:20  -251.965161c -3.20  -2.83
iter:   6 23:16:41  -251.965008c -3.01  -2.80
iter:   7 23:19:25  -251.965051c -2.91  -3.06
iter:   8 23:24:17  -251.964988c -3.79  -3.19
iter:   9 23:26:44  -251.964965c -3.97  -3.34
Writing to output.gpw (mode='')

iter:  10 23:29:42  -251.965020c -3.78  -3.45
iter:  11 23:32:09  -251.965001c -4.40  -3.43
iter:  12 23:34:43  -251.965017c -4.43  -3.47
iter:  13 23:37:22  -251.965024c -4.59  -3.55
iter:  14 23:39:49  -251.965006c -4.73  -3.48
Writing to output.gpw (mode='')

iter:  15 23:42:11  -251.965004c -4.93  -3.63
iter:  16 23:44:46  -251.964995c -4.92  -3.72
iter:  17 23:47:21  -251.964997c -5.48  -3.75
iter:  18 23:49:38  -251.965007c -5.02  -3.71
iter:  19 23:52:03  -251.964999c -5.45  -3.79
Writing to output.gpw (mode='')

iter:  20 23:54:22  -251.964999c -5.43  -4.04c
iter:  21 23:57:18  -251.964998c -5.87  -4.11c
iter:  22 23:59:39  -251.965001c -5.87  -4.27c
iter:  23 00:03:03  -251.964999c -6.25  -4.33c
iter:  24 00:06:06  -251.965000c -6.47  -4.41c
Writing to output.gpw (mode='')

iter:  25 00:09:05  -251.964998c -6.48  -4.59c
iter:  26 00:14:05  -251.964998c -6.80  -4.73c
iter:  27 00:17:50  -251.964998c -6.92  -4.78c
iter:  28 00:22:39  -251.964998c -6.99  -4.82c
iter:  29 00:26:59  -251.964998c -7.22  -4.98c
Writing to output.gpw (mode='')

iter:  30 00:30:04  -251.964999c -7.30  -5.11c
iter:  31 00:32:50  -251.964999c -7.55c -5.24c

Converged after 31 iterations.

Dipole moment: (-0.309725, -0.278210, 0.119450) |e|*Ang

Energy contributions relative to reference atoms: (reference = -11745.526041)

Kinetic:        +97.193760
Potential:      -84.515580
External:        +0.000000
XC:            -265.152537
Entropy (-ST):   -0.169111
Local:           +0.593914
--------------------------
Free energy:   -252.049554
Extrapolated:  -251.964999

Dipole-layer corrected work functions: 3.480305, 3.250681 eV

Showing only first 2 kpts
 Kpt  Band  Eigenvalues  Occupancy
  0    23     -3.50378    1.88160
  0    24     -3.42886    1.56058
  0    25     -3.34221    0.77125
  0    26     -3.31003    0.49599

  1    23     -3.62991    1.98995
  1    24     -3.62203    1.98824
  1    25     -3.47090    1.78338
  1    26     -3.12913    0.01755


Fermi level: -3.36549

No gap
Writing to output.gpw (mode='')


Forces in eV/Ang:
  0 Li    0.01681   -0.00383   -0.31905
  1 Li    0.01368    0.00635   -0.31317
  2 Li   -0.00944    0.00948   -0.31732
  3 Li    0.00778    0.01829   -0.29512
  4 Li    0.00187   -0.00214   -0.29062
  5 Li   -0.00620   -0.01383   -0.31335
  6 Li    0.01288   -0.01295   -0.27594
  7 Li   -0.01850   -0.00793   -0.29477
  8 Li    0.00402   -0.01710   -0.31914
  9 Li    0.01514   -0.01331    0.20830
 10 Li   -0.06200   -0.01700    0.36441
 11 Li   -0.02450   -0.00329    0.32331
 12 Li    0.00439    0.02550    0.32197
 13 Li   -0.06621   -0.09015    0.34368
 14 Li   -0.05444    0.05604    0.34842
 15 Li    0.01882    0.06344    0.36463
 16 Li   -0.02334    0.02283    0.17431
 17 Li    0.09007    0.06673    0.34375
 18 Li   -0.00034   -0.00414   -0.02769
 19 Li    0.00002    0.01400   -0.00034
 20 Li    0.02395   -0.02669   -0.00630
 21 Li   -0.00695    0.00410    0.00545
 22 Li    0.00151   -0.00606    0.01161
 23 Li   -0.01203    0.00017   -0.00026
 24 Li    0.01101   -0.00521   -0.00013
 25 Li   -0.00705    0.00815    0.00534
 26 Li   -0.00230   -0.00694   -0.02673
 27 Li    0.00375   -0.00177    0.00231
 28 Li    0.00501    0.00551   -0.00147
 29 Li    0.00405   -0.00164   -0.00072
 30 Li   -0.00094   -0.00745    0.00013
 31 Li    0.02220   -0.00333    0.00117
 32 Li   -0.01932    0.00998    0.00544
 33 Li    0.01088    0.01505   -0.00344
 34 Li   -0.01192    0.01302   -0.00202
 35 Li    0.01879   -0.00629    0.00813
 36 N     0.04371   -0.02793   -0.02476
 37 N    -0.02528   -0.00708   -0.00525
 38 N    -0.02965   -0.00520   -0.01934

System changes: positions 

Initializing position-dependent things.

Density initialized from wave functions
       .-----------------------.  
      /|                       |  
     / |                       |  
    /  |                       |  
   /   |                       |  
  /    |                       |  
 *     |                       |  
 |     |                       |  
 |     |                       |  
 |     |                       |  
 |     |                       |  
 |     |                       |  
 |     |Li     Li              |  
 |    Li   N Li     Li         |  
 |     |                   Li  |  
 |     |  LiLi  N Lii          |  
 |     |                  Li   |  
 |     |Li      Li Li   Li     |  
 |     |                N      |  
 |  Lii|     LLi     LLi       |  
 |     |  Li      Li      Li   |  
 | Li  |   Li      Li          |  
 |     |Li      Li      Li     |  
 Li    | Li      Li            |  
 |    Li      Li      Li       |  
 |     |                       |  
 |     |                       |  
 |     |                       |  
 |     |                       |  
 |     |                       |  
 |     |                       |  
 |     .-----------------------.  
 |    /                       /   
 |   /                       /    
 |  /                       /     
 | /                       /      
 |/                       /       
 *-----------------------*        

Positions:
   0 Li     1.617037    1.617037   10.000000    ( 0.0000,  0.0000,  0.0000)
   1 Li     4.851111    1.617037   10.000000    ( 0.0000,  0.0000,  0.0000)
   2 Li     8.085185    1.617037   10.000000    ( 0.0000,  0.0000,  0.0000)
   3 Li     1.617037    4.851111   10.000000    ( 0.0000,  0.0000,  0.0000)
   4 Li     4.851111    4.851111   10.000000    ( 0.0000,  0.0000,  0.0000)
   5 Li     8.085185    4.851111   10.000000    ( 0.0000,  0.0000,  0.0000)
   6 Li     1.617037    8.085185   10.000000    ( 0.0000,  0.0000,  0.0000)
   7 Li     4.851111    8.085185   10.000000    ( 0.0000,  0.0000,  0.0000)
   8 Li     8.085185    8.085185   10.000000    ( 0.0000,  0.0000,  0.0000)
   9 Li     0.000000    0.000000   11.617037    ( 0.0000,  0.0000,  0.0000)
  10 Li     3.234074    0.000000   11.617037    ( 0.0000,  0.0000,  0.0000)
  11 Li     6.468148    0.000000   11.617037    ( 0.0000,  0.0000,  0.0000)
  12 Li     0.000000    3.234074   11.617037    ( 0.0000,  0.0000,  0.0000)
  13 Li     3.234074    3.234074   11.617037    ( 0.0000,  0.0000,  0.0000)
  14 Li     6.468148    3.234074   11.617037    ( 0.0000,  0.0000,  0.0000)
  15 Li     0.000000    6.468148   11.617037    ( 0.0000,  0.0000,  0.0000)
  16 Li     3.234074    6.468148   11.617037    ( 0.0000,  0.0000,  0.0000)
  17 Li     6.468148    6.468148   11.617037    ( 0.0000,  0.0000,  0.0000)
  18 Li     1.081488    1.160914   13.936275    ( 0.0000,  0.0000,  0.0000)
  19 Li     4.681224    1.561159   13.710768    ( 0.0000,  0.0000,  0.0000)
  20 Li     8.014601    1.691360   13.487587    ( 0.0000,  0.0000,  0.0000)
  21 Li     1.555454    4.649808   13.616588    ( 0.0000,  0.0000,  0.0000)
  22 Li     4.746639    4.957955   13.656271    ( 0.0000,  0.0000,  0.0000)
  23 Li     8.144236    5.023969   13.710265    ( 0.0000,  0.0000,  0.0000)
  24 Li     1.829697    7.872588   13.760613    ( 0.0000,  0.0000,  0.0000)
  25 Li     5.052037    8.148469   13.616098    ( 0.0000,  0.0000,  0.0000)
  26 Li     8.544016    8.626049   13.935281    ( 0.0000,  0.0000,  0.0000)
  27 Li     0.514269   -0.508815   15.861934    ( 0.0000,  0.0000,  0.0000)
  28 Li     3.238110   -0.565658   15.868901    ( 0.0000,  0.0000,  0.0000)
  29 Li     7.255582    0.403159   15.580507    ( 0.0000,  0.0000,  0.0000)
  30 Li    -0.397936    2.449714   15.578487    ( 0.0000,  0.0000,  0.0000)
  31 Li     3.361311    3.690424   15.806985    ( 0.0000,  0.0000,  0.0000)
  32 Li     6.014642    3.695290   15.656289    ( 0.0000,  0.0000,  0.0000)
  33 Li     0.575465    6.470213   15.868307    ( 0.0000,  0.0000,  0.0000)
  34 Li     3.283385    6.424359   15.806792    ( 0.0000,  0.0000,  0.0000)
  35 Li     6.009816    6.341660   15.802124    ( 0.0000,  0.0000,  0.0000)
  36 N      9.023659    0.679987   14.796345    ( 0.0000,  0.0000,  0.0000)
  37 N      1.888790    7.826222   15.636442    ( 0.0000,  0.0000,  0.0000)
  38 N      4.667516    5.036219   15.538254    ( 0.0000,  0.0000,  0.0000)

Unit cell:
           periodic     x           y           z      points  spacing
  1. axis:    yes    9.702222    0.000000    0.000000    60     0.1617
  2. axis:    yes    0.000000    9.702222    0.000000    60     0.1617
  3. axis:    no     0.000000    0.000000   24.851111   156     0.1593

  Lengths:   9.702222   9.702222  24.851111
  Angles:   90.000000  90.000000  90.000000

Effective grid spacing dv^(1/3) = 0.1609

     iter     time        total  log10-change:
                         energy  eigst   dens
iter:   1 00:38:08  -251.967722  -2.00
iter:   2 00:47:18  -251.965598  -2.71  -2.44
iter:   3 00:54:49  -251.965674c -3.25  -2.72
iter:   4 01:02:37  -251.965336c -3.25  -2.80
Writing to output.gpw (mode='')

iter:   5 01:11:14  -251.965356c -3.92  -3.14
iter:   6 01:18:27  -251.965291c -3.62  -3.10
iter:   7 01:23:38  -251.965291c -3.52  -3.39
iter:   8 01:30:16  -251.965309c -4.39  -3.50
iter:   9 01:35:39  -251.965324c -4.56  -3.64
Writing to output.gpw (mode='')

iter:  10 01:42:00  -251.965313c -4.42  -3.82
iter:  11 01:48:18  -251.965316c -5.03  -3.74
iter:  12 01:55:43  -251.965321c -5.29  -3.76
iter:  13 02:02:37  -251.965320c -5.24  -3.91
iter:  14 02:08:37  -251.965322c -5.60  -3.95
Writing to output.gpw (mode='')

iter:  15 02:13:57  -251.965320c -5.75  -4.07c
iter:  16 02:20:59  -251.965323c -5.78  -4.21c
iter:  17 02:28:04  -251.965322c -6.20  -4.22c
iter:  18 02:35:45  -251.965322c -6.22  -4.45c
iter:  19 02:42:22  -251.965322c -6.66  -4.65c
Writing to output.gpw (mode='')

iter:  20 02:47:14  -251.965323c -6.72  -4.67c
iter:  21 02:55:04  -251.965322c -6.81  -4.79c
iter:  22 02:59:37  -251.965322c -7.11  -4.91c
iter:  23 03:04:01  -251.965322c -7.17  -4.94c
iter:  24 03:08:11  -251.965322c -7.28  -5.06c
Writing to output.gpw (mode='')

iter:  25 03:12:33  -251.965322c -7.56c -5.22c

Converged after 25 iterations.

Dipole moment: (-0.222058, -0.349891, 0.119029) |e|*Ang

Energy contributions relative to reference atoms: (reference = -11745.526041)

Kinetic:        +97.222588
Potential:      -84.533389
External:        +0.000000
XC:            -265.163871
Entropy (-ST):   -0.169205
Local:           +0.593953
--------------------------
Free energy:   -252.049925
Extrapolated:  -251.965322

Dipole-layer corrected work functions: 3.479957, 3.251142 eV

Showing only first 2 kpts
 Kpt  Band  Eigenvalues  Occupancy
  0    23     -3.50428    1.88258
  0    24     -3.42880    1.55980
  0    25     -3.34249    0.77343
  0    26     -3.31019    0.49675

  1    23     -3.62983    1.98992
  1    24     -3.62280    1.98841
  1    25     -3.47105    1.78375
  1    26     -3.12950    0.01766


Fermi level: -3.36555

No gap

Forces in eV/Ang:
  0 Li    0.01686   -0.00384   -0.31891
  1 Li    0.01363    0.00633   -0.31288
  2 Li   -0.00956    0.00959   -0.31758
  3 Li    0.00795    0.01847   -0.29526
  4 Li    0.00182   -0.00213   -0.29071
  5 Li   -0.00619   -0.01380   -0.31312
  6 Li    0.01292   -0.01298   -0.27579
  7 Li   -0.01868   -0.00810   -0.29489
  8 Li    0.00402   -0.01715   -0.31895
  9 Li    0.01560   -0.01357    0.21148
 10 Li   -0.06053   -0.01773    0.36364
 11 Li   -0.02427   -0.00359    0.32187
 12 Li    0.00494    0.02537    0.32070
 13 Li   -0.06578   -0.08942    0.34352
 14 Li   -0.05488    0.05650    0.34882
 15 Li    0.01970    0.06195    0.36401
 16 Li   -0.02191    0.02142    0.17460
 17 Li    0.08926    0.06625    0.34377
 18 Li    0.00029   -0.00322   -0.03339
 19 Li    0.00138    0.01496    0.00102
 20 Li    0.02359   -0.02690   -0.00147
 21 Li   -0.00542    0.00600    0.00418
 22 Li    0.00063   -0.00571    0.01265
 23 Li   -0.01287   -0.00111    0.00112
 24 Li    0.01060   -0.00439    0.00290
 25 Li   -0.00906    0.00661    0.00424
 26 Li   -0.00324   -0.00679   -0.03119
 27 Li    0.00498   -0.00335    0.00435
 28 Li    0.00197    0.00489   -0.00248
 29 Li    0.00809    0.00032   -0.00307
 30 Li   -0.00292   -0.00941   -0.00071
 31 Li    0.01946   -0.00594    0.00211
 32 Li   -0.01835    0.00827    0.00398
 33 Li    0.01130    0.01810   -0.00434
 34 Li   -0.01353    0.01418   -0.00559
 35 Li    0.02480   -0.00061    0.01008
 36 N     0.02054   -0.00884    0.02884
 37 N    -0.02611   -0.01366   -0.00018
 38 N    -0.01694   -0.01186   -0.02833

Timing:                                      incl.     excl.
-------------------------------------------------------------------
Density initialized from wave functions:   503.971   503.968   0.1% |
 Symmetrize density:                         0.003     0.003   0.0% |
Forces:                                    412.288   412.288   0.1% |
Hamiltonian:                             13455.253     0.036   0.0% |
 Atomic:                                     7.229     0.103   0.0% |
  XC Correction:                             7.125     7.125   0.0% |
 Calculate atomic Hamiltonians:              9.312     9.312   0.0% |
 Communicate:                              173.993   173.993   0.0% |
 Hartree integrate/restrict:                 5.119     5.119   0.0% |
 Poisson:                                  207.435    93.043   0.0% |
  Communicate from 1D:                      23.477    23.477   0.0% |
  Communicate from 2D:                      44.834    44.834   0.0% |
  Communicate to 1D:                         2.449     2.449   0.0% |
  Communicate to 2D:                        23.269    23.269   0.0% |
  FFT 1D:                                   10.891    10.891   0.0% |
  FFT 2D:                                    9.471     9.471   0.0% |
 XC 3D grid:                             13051.656   587.147   0.1% |
  VdW-DF integral:                       12464.509     7.437   0.0% |
   Convolution:                             87.767    87.767   0.0% |
   FFT:                                     36.853    36.853   0.0% |
   gather:                               11104.459 11104.459   2.1% ||
   hmm1:                                    30.806    30.806   0.0% |
   hmm2:                                    31.030    31.030   0.0% |
   iFFT:                                    38.859    38.859   0.0% |
   potential:                             1120.277     3.509   0.0% |
    collect:                                92.422    92.422   0.0% |
    p1:                                    126.209   126.209   0.0% |
    p2:                                     42.586    42.586   0.0% |
    sum:                                   855.551   855.551   0.2% |
   splines:                                  7.021     7.021   0.0% |
 vbar:                                       0.473     0.473   0.0% |
LCAO initialization:                         3.821     0.083   0.0% |
 LCAO eigensolver:                           1.395     0.001   0.0% |
  Calculate projections:                     0.000     0.000   0.0% |
  DenseAtomicCorrection:                     0.000     0.000   0.0% |
  Distribute overlap matrix:                 1.377     1.377   0.0% |
  Orbital Layouts:                           0.016     0.016   0.0% |
  Potential matrix:                          0.001     0.001   0.0% |
  Sum over cells:                            0.001     0.001   0.0% |
 LCAO to grid:                               1.808     1.808   0.0% |
 Set positions (LCAO WFS):                   0.535     0.391   0.0% |
  Basic WFS set positions:                   0.002     0.002   0.0% |
  Basis functions set positions:             0.000     0.000   0.0% |
  P tci:                                     0.001     0.001   0.0% |
  ST tci:                                    0.085     0.085   0.0% |
  mktci:                                     0.055     0.055   0.0% |
Redistribute:                                0.082     0.082   0.0% |
SCF-cycle:                               525375.563 32161.411   6.0% |-|
 Davidson:                               37521.361 16482.742   3.1% ||
  Apply hamiltonian:                      3099.978  3099.978   0.6% |
  Subspace diag:                          4429.200     0.725   0.0% |
   calc_h_matrix:                         3138.583   312.632   0.1% |
    Apply hamiltonian:                    2825.950  2825.950   0.5% |
   diagonalize:                            546.202   546.202   0.1% |
   rotate_psi:                             743.690   743.690   0.1% |
  calc. matrices:                        11573.651  4669.780   0.9% |
   Apply hamiltonian:                     6903.870  6903.870   1.3% ||
  diagonalize:                              11.719    11.719   0.0% |
  rotate_psi:                             1924.071  1924.071   0.4% |
 Density:                                 2429.345     0.082   0.0% |
  Atomic density matrices:                1702.693  1702.693   0.3% |
  Mix:                                     363.051   363.051   0.1% |
  Multipole moments:                        55.190    55.190   0.0% |
  Pseudo density:                          308.329   308.126   0.1% |
   Symmetrize density:                       0.203     0.203   0.0% |
 Hamiltonian:                            453215.473     0.594   0.0% |
  Atomic:                                  255.488     3.848   0.0% |
   XC Correction:                          251.640   251.640   0.0% |
  Calculate atomic Hamiltonians:           280.977   280.977   0.1% |
  Communicate:                            4978.879  4978.879   0.9% |
  Hartree integrate/restrict:              179.499   179.499   0.0% |
  Poisson:                                6752.486  3011.233   0.6% |
   Communicate from 1D:                    731.038   731.038   0.1% |
   Communicate from 2D:                   1344.561  1344.561   0.2% |
   Communicate to 1D:                       80.876    80.876   0.0% |
   Communicate to 2D:                      874.232   874.232   0.2% |
   FFT 1D:                                 376.599   376.599   0.1% |
   FFT 2D:                                 333.947   333.947   0.1% |
  XC 3D grid:                            440756.286 20588.525   3.8% |-|
   VdW-DF integral:                      420167.761   230.835   0.0% |
    Convolution:                          2881.930  2881.930   0.5% |
    FFT:                                  1192.965  1192.965   0.2% |
    gather:                              377846.819 377846.819  69.9% |---------------------------|
    hmm1:                                  992.597   992.597   0.2% |
    hmm2:                                  993.474   993.474   0.2% |
    iFFT:                                 1310.538  1310.538   0.2% |
    potential:                           34718.578   121.037   0.0% |
     collect:                             4009.777  4009.777   0.7% |
     p1:                                  4356.456  4356.456   0.8% |
     p2:                                  1431.887  1431.887   0.3% |
     sum:                                24799.421 24799.421   4.6% |-|
    splines:                                 0.024     0.024   0.0% |
  vbar:                                     11.264    11.264   0.0% |
 Orthonormalize:                            47.973     0.015   0.0% |
  calc_s_matrix:                             5.748     5.748   0.0% |
  inverse-cholesky:                         31.581    31.581   0.0% |
  projections:                               0.005     0.005   0.0% |
  rotate_psi_s:                             10.624    10.624   0.0% |
Set symmetry:                                0.002     0.002   0.0% |
Other:                                     608.319   608.319   0.1% |
-------------------------------------------------------------------
Total:                                             540359.300 100.0%

Memory usage: 1.37 GiB
Date: Thu Jan 19 03:12:42 2023
