
  ___ ___ ___ _ _ _  
 |   |   |_  | | | | 
 | | | | | . | | | | 
 |__ |  _|___|_____|  22.8.0
 |___|_|             

User:   vazumah@f005
Date:   Fri Jan 13 13:41:39 2023
Arch:   x86_64
Pid:    38263
CWD:    /home/vazumah/Python_Projects/Li_NRR/Li_adsorb_studies/autocat/multi_adsorbates/adsorbates/N/ontop_correct/9.702_9.702
Python: 3.10.6
gpaw:   /home/vazumah/anaconda3/envs/NAME/lib/python3.10/site-packages/gpaw
_gpaw:  /home/vazumah/anaconda3/envs/NAME/lib/python3.10/site-packages/
        _gpaw.cpython-310-x86_64-linux-gnu.so
ase:    /home/vazumah/anaconda3/envs/NAME/lib/python3.10/site-packages/ase (version 3.22.1)
numpy:  /home/vazumah/anaconda3/envs/NAME/lib/python3.10/site-packages/numpy (version 1.23.3)
scipy:  /home/vazumah/anaconda3/envs/NAME/lib/python3.10/site-packages/scipy (version 1.9.1)
libxc:  5.2.3
units:  Angstrom and eV
cores: 32
OpenMP: True
OMP_NUM_THREADS: 1

Reading from output.gpw
Reading input parameters:
  h: 0.16
  kpts: {size: [4, 4, 1]}
  occupations: {name: fermi-dirac,
                width: 0.05}
  poissonsolver: {dipolelayer: xy}
  xc: BEEF-vdW

Initialize ...

species:
  Li:
    name: Lithium
    id: 830b4218f175192f93f959cfc0aad614
    Z: 3.0
    valence: 1
    core: 2
    charge: 0.0
    file: /home/vazumah/anaconda3/envs/NAME/share/gpaw/Li.PBE.gz
    compensation charges: {type: gauss,
                           rc: 0.33,
                           lmax: 2}
    cutoffs: {filter: 1.91,
              core: 2.55}
    valence states:
      #              energy  rcut
      - 2s(1.00)    -2.874   1.058
      - 2p(0.00)    -1.090   1.058
      -  s          24.337   1.058
  
    # Using partial waves for Li as LCAO basis

  N:
    name: Nitrogen
    id: f7500608b86eaa90eef8b1d9a670dc53
    Z: 7.0
    valence: 5
    core: 2
    charge: 0.0
    file: /home/vazumah/anaconda3/envs/NAME/share/gpaw/N.PBE.gz
    compensation charges: {type: gauss,
                           rc: 0.18,
                           lmax: 2}
    cutoffs: {filter: 1.11,
              core: 0.96}
    valence states:
      #              energy  rcut
      - 2s(2.00)   -18.583   0.603
      - 2p(3.00)    -7.089   0.529
      -  s           8.629   0.603
      -  p          20.123   0.529
      -  d           0.000   0.577
  
    # Using partial waves for N as LCAO basis

Reference energy: -10263.804537  # eV

Spin-paired calculation

Convergence criteria:
 Maximum [total energy] change in last 3 cyles: 0.0005 eV / electron
 Maximum integral of absolute [dens]ity change: 0.0001 electrons / valence electron
 Maximum integral of absolute [eigenst]ate change: 4e-08 eV^2 / valence electron
 Maximum number of scf [iter]ations: 333
 (Square brackets indicate name in SCF output, whereas a 'c' in
 the SCF output indicates the quantity has converged.)

Symmetries present (total): 2

  ( 1  0  0)  ( 0  1  0)
  ( 0  1  0)  ( 1  0  0)
  ( 0  0  1)  ( 0  0  1)

16 k-points: 4 x 4 x 1 Monkhorst-Pack grid
6 k-points in the irreducible part of the Brillouin zone
       k-points in crystal coordinates                weights
   0:     0.12500000   -0.12500000    0.00000000          2/16
   1:     0.12500000    0.12500000    0.00000000          2/16
   2:     0.37500000   -0.37500000    0.00000000          2/16
   3:     0.37500000   -0.12500000    0.00000000          4/16
   4:     0.37500000    0.12500000    0.00000000          4/16
   5:     0.37500000    0.37500000    0.00000000          2/16

Wave functions: Uniform real-space grid
  Kinetic energy operator: 6*3+1=19 point O(h^6) finite-difference Laplacian
  ScaLapack parameters: grid=1x1, blocksize=None
  Wavefunction extrapolation:
    Improved wavefunction reuse through dual PAW basis 

Occupation numbers: Fermi-Dirac:
  width: 0.0500  # eV
 

Eigensolver
   Davidson(niter=2) 

Densities:
  Coarse grid: 60*60*156 grid
  Fine grid: 120*120*312 grid
  Total Charge: 0.000000 

Density mixing:
  Method: separate
  Backend: pulay
  Linear mixing parameter: 0.05
  old densities: 5
  Damping of long wavelength oscillations: 50 

Hamiltonian:
  XC and Coulomb potentials evaluated on a 120*120*312 grid
  Using the BEEF-vdW Exchange-Correlation functional
  Interpolation: tri-quintic (5. degree polynomial)
  Poisson solver: FastPoissonSolver using
    Stencil: 6*3+1=19 point O(h^6) finite-difference Laplacian
    FFT axes: [0, 1]
    FST axes: [2]

Dipole correction along z-axis 

XC parameters: BEEF-vdW with 2 nearest neighbor stencil

Memory estimate:
  Process memory now: 127.40 MiB
  Calculator: 97.32 MiB
    Density: 21.67 MiB
      Arrays: 6.87 MiB
      Localized functions: 12.20 MiB
      Mixer: 2.61 MiB
    Hamiltonian: 5.46 MiB
      Arrays: 4.49 MiB
      XC: 0.00 MiB
      Poisson: 0.00 MiB
      vbar: 0.97 MiB
    Wavefunctions: 70.20 MiB
      Arrays psit_nG: 50.10 MiB
      Eigensolver: 19.47 MiB
      Projections: 0.02 MiB
      Projectors: 0.61 MiB

Total number of cores used: 32
Parallelization over k-points: 2
Domain decomposition: 2 x 2 x 4

Number of atoms: 38
Number of atomic orbitals: 152
Number of bands in calculation: 32
Number of valence electrons: 46
Bands to converge: occupied

... initialized

Initializing position-dependent things.

Creating initial wave functions:
  32 bands from LCAO basis set

       .-----------------------.  
      /|                       |  
     / |                       |  
    /  |                       |  
   /   |                       |  
  /    |                       |  
 *     |                       |  
 |     |                       |  
 |     |                       |  
 |     |                       |  
 |     |                       |  
 |     |                 Li   N|  
 |     |                       |  
 |     |    Li               Li|  
 |     |             Li        |  
 |   Li|  LiN   LiLi      Li   |  
 |     | Li                    |  
 |     |Li      Li      Li     |  
 Li    |   Li                  |  
 |   LLi     LLi     LLi       |  
 |     |  Li      Li      Li   |  
 | Li  |   Li      Li          |  
 |     |Li      Li      Li     |  
 Li    | Li      Li            |  
 |    Li      Li      Li       |  
 |     |                       |  
 |     |                       |  
 |     |                       |  
 |     |                       |  
 |     |                       |  
 |     |                       |  
 |     .-----------------------.  
 |    /                       /   
 |   /                       /    
 |  /                       /     
 | /                       /      
 |/                       /       
 *-----------------------*        

Positions:
   0 Li     1.617037    1.617037   10.000000    ( 0.0000,  0.0000,  0.0000)
   1 Li     4.851111    1.617037   10.000000    ( 0.0000,  0.0000,  0.0000)
   2 Li     8.085185    1.617037   10.000000    ( 0.0000,  0.0000,  0.0000)
   3 Li     1.617037    4.851111   10.000000    ( 0.0000,  0.0000,  0.0000)
   4 Li     4.851111    4.851111   10.000000    ( 0.0000,  0.0000,  0.0000)
   5 Li     8.085185    4.851111   10.000000    ( 0.0000,  0.0000,  0.0000)
   6 Li     1.617037    8.085185   10.000000    ( 0.0000,  0.0000,  0.0000)
   7 Li     4.851111    8.085185   10.000000    ( 0.0000,  0.0000,  0.0000)
   8 Li     8.085185    8.085185   10.000000    ( 0.0000,  0.0000,  0.0000)
   9 Li     0.000000    0.000000   11.617037    ( 0.0000,  0.0000,  0.0000)
  10 Li     3.234074    0.000000   11.617037    ( 0.0000,  0.0000,  0.0000)
  11 Li     6.468148    0.000000   11.617037    ( 0.0000,  0.0000,  0.0000)
  12 Li     0.000000    3.234074   11.617037    ( 0.0000,  0.0000,  0.0000)
  13 Li     3.234074    3.234074   11.617037    ( 0.0000,  0.0000,  0.0000)
  14 Li     6.468148    3.234074   11.617037    ( 0.0000,  0.0000,  0.0000)
  15 Li     0.000000    6.468148   11.617037    ( 0.0000,  0.0000,  0.0000)
  16 Li     3.234074    6.468148   11.617037    ( 0.0000,  0.0000,  0.0000)
  17 Li     6.468148    6.468148   11.617037    ( 0.0000,  0.0000,  0.0000)
  18 Li     1.499127    1.499127   13.335579    ( 0.0000,  0.0000,  0.0000)
  19 Li     4.968034    1.441669   13.508413    ( 0.0000,  0.0000,  0.0000)
  20 Li     8.084359    1.710191   13.612092    ( 0.0000,  0.0000,  0.0000)
  21 Li     1.441669    4.968034   13.508413    ( 0.0000,  0.0000,  0.0000)
  22 Li     4.968095    4.968095   13.482245    ( 0.0000,  0.0000,  0.0000)
  23 Li     8.131873    4.777609   13.698767    ( 0.0000,  0.0000,  0.0000)
  24 Li     1.710191    8.084359   13.612092    ( 0.0000,  0.0000,  0.0000)
  25 Li     4.777609    8.131873   13.698767    ( 0.0000,  0.0000,  0.0000)
  26 Li     8.078480    8.078480   13.566317    ( 0.0000,  0.0000,  0.0000)
  27 Li     0.055265    0.055265   14.887216    ( 0.0000,  0.0000,  0.0000)
  28 Li     2.894841    0.972434   16.589271    ( 0.0000,  0.0000,  0.0000)
  29 Li     7.097336   -0.074782   16.090800    ( 0.0000,  0.0000,  0.0000)
  30 Li     0.972434    2.894841   16.589271    ( 0.0000,  0.0000,  0.0000)
  31 Li     3.218928    3.218928   13.668864    ( 0.0000,  0.0000,  0.0000)
  32 Li     5.351424    3.285238   16.261378    ( 0.0000,  0.0000,  0.0000)
  33 Li    -0.074782    7.097336   16.090800    ( 0.0000,  0.0000,  0.0000)
  34 Li     3.285238    5.351424   16.261378    ( 0.0000,  0.0000,  0.0000)
  35 Li     6.485808    6.485808   15.546464    ( 0.0000,  0.0000,  0.0000)
  36 N      9.239397    9.239397   16.648646    ( 0.0000,  0.0000,  0.0000)
  37 N      3.507533    3.507533   16.170535    ( 0.0000,  0.0000,  0.0000)

Unit cell:
           periodic     x           y           z      points  spacing
  1. axis:    yes    9.702222    0.000000    0.000000    60     0.1617
  2. axis:    yes    0.000000    9.702222    0.000000    60     0.1617
  3. axis:    no     0.000000    0.000000   24.851111   156     0.1593

  Lengths:   9.702222   9.702222  24.851111
  Angles:   90.000000  90.000000  90.000000

Effective grid spacing dv^(1/3) = 0.1609

     iter     time        total  log10-change:
                         energy  eigst   dens
iter:   1 13:42:21  -225.838571  +0.90
iter:   2 13:42:51  -226.211719  +0.35  -1.67
iter:   3 13:43:17  -226.326909  -0.08  -1.89
iter:   4 13:43:36  -226.374189  -0.44  -2.08
Writing to output.gpw (mode='')

iter:   5 13:43:57  -226.396674  -0.76  -2.33
iter:   6 13:44:19  -226.407585  -1.08  -2.59
iter:   7 13:44:38  -226.412644c -1.42  -2.70
iter:   8 13:44:55  -226.415923c -1.64  -2.81
iter:   9 13:45:13  -226.417936c -1.85  -2.96
Writing to output.gpw (mode='')

iter:  10 13:45:30  -226.419256c -2.03  -2.97
iter:  11 13:45:47  -226.420032c -2.23  -2.93
iter:  12 13:46:04  -226.420610c -2.36  -2.97
iter:  13 13:46:21  -226.421033c -2.45  -3.06
iter:  14 13:46:37  -226.421358c -2.65  -3.24
Writing to output.gpw (mode='')

iter:  15 13:47:00  -226.421604c -2.74  -3.38
iter:  16 13:47:21  -226.421777c -2.92  -3.44
iter:  17 13:47:47  -226.421909c -3.03  -3.48
iter:  18 13:48:09  -226.422021c -3.13  -3.45
iter:  19 13:48:32  -226.422100c -3.16  -3.37
Writing to output.gpw (mode='')

iter:  20 13:48:54  -226.422159c -3.30  -3.40
iter:  21 13:49:18  -226.422201c -3.41  -3.45
iter:  22 13:49:38  -226.422226c -3.51  -3.58
iter:  23 13:49:57  -226.422268c -3.74  -3.75
iter:  24 13:50:15  -226.422292c -3.83  -3.76
Writing to output.gpw (mode='')

iter:  25 13:50:32  -226.422329c -3.89  -3.91
iter:  26 13:50:49  -226.422349c -3.89  -4.21c
iter:  27 13:51:07  -226.422363c -4.02  -4.20c
iter:  28 13:51:24  -226.422380c -3.97  -4.12c
iter:  29 13:51:41  -226.422389c -4.31  -3.96
Writing to output.gpw (mode='')

iter:  30 13:51:59  -226.422398c -4.29  -3.93
iter:  31 13:52:16  -226.422406c -4.43  -3.86
iter:  32 13:52:33  -226.422406c -4.60  -3.76
iter:  33 13:52:50  -226.422417c -4.57  -3.78
iter:  34 13:53:07  -226.422419c -4.76  -3.78
Writing to output.gpw (mode='')

iter:  35 13:53:25  -226.422418c -4.79  -3.67
iter:  36 13:53:42  -226.422422c -4.85  -3.73
iter:  37 13:53:59  -226.422413c -4.99  -3.73
iter:  38 13:54:17  -226.422417c -5.14  -3.96
iter:  39 13:54:34  -226.422420c -5.18  -3.98
Writing to output.gpw (mode='')

iter:  40 13:54:51  -226.422408c -5.13  -4.02c
iter:  41 13:55:08  -226.422408c -5.25  -4.34c
iter:  42 13:55:26  -226.422410c -5.39  -4.40c
iter:  43 13:55:43  -226.422414c -5.34  -4.45c
iter:  44 13:56:00  -226.422414c -5.63  -4.52c
Writing to output.gpw (mode='')

iter:  45 13:56:17  -226.422414c -5.71  -4.51c
iter:  46 13:56:35  -226.422415c -5.59  -4.49c
iter:  47 13:56:52  -226.422416c -5.82  -4.44c
iter:  48 13:57:09  -226.422416c -5.85  -4.42c
iter:  49 13:57:26  -226.422417c -6.03  -4.31c
Writing to output.gpw (mode='')

iter:  50 13:57:45  -226.422417c -6.08  -4.37c
iter:  51 13:58:02  -226.422417c -6.06  -4.49c
iter:  52 13:58:19  -226.422417c -6.13  -4.60c
iter:  53 13:58:36  -226.422417c -6.36  -4.78c
iter:  54 13:58:53  -226.422417c -6.34  -4.86c
Writing to output.gpw (mode='')

iter:  55 13:59:11  -226.422415c -6.30  -4.94c
iter:  56 13:59:28  -226.422416c -6.48  -5.08c
iter:  57 13:59:45  -226.422417c -6.24  -5.16c
iter:  58 14:00:02  -226.422417c -6.63  -5.34c
iter:  59 14:00:20  -226.422417c -6.56  -5.37c
Writing to output.gpw (mode='')

iter:  60 14:00:39  -226.422417c -6.64  -5.40c
iter:  61 14:00:56  -226.422417c -6.55  -5.39c
iter:  62 14:01:13  -226.422416c -6.81  -5.25c
iter:  63 14:01:30  -226.422416c -6.91  -5.49c
iter:  64 14:01:48  -226.422416c -7.00  -5.55c
Writing to output.gpw (mode='')

iter:  65 14:02:05  -226.422416c -6.85  -5.49c
iter:  66 14:02:22  -226.422416c -7.11  -5.58c
iter:  67 14:02:39  -226.422416c -7.16  -5.53c
iter:  68 14:02:57  -226.422416c -7.28  -5.51c
iter:  69 14:03:20  -226.422416c -7.17  -5.45c
Writing to output.gpw (mode='')

iter:  70 14:03:43  -226.422416c -7.22  -5.47c
iter:  71 14:04:06  -226.422416c -7.49c -5.49c

Converged after 71 iterations.

Dipole moment: (2.984082, 2.984082, -0.051684) |e|*Ang

Energy contributions relative to reference atoms: (reference = -10263.804537)

Kinetic:        +73.196826
Potential:      -62.898644
External:        +0.000000
XC:            -236.951649
Entropy (-ST):   -0.158142
Local:           +0.310122
--------------------------
Free energy:   -226.501487
Extrapolated:  -226.422416

Dipole-layer corrected work functions: 3.437502, 3.536856 eV

Showing only first 2 kpts
 Kpt  Band  Eigenvalues  Occupancy
  0    21     -3.73004    1.98458
  0    22     -3.61268    1.84967
  0    23     -3.52448    1.35662
  0    24     -3.07190    0.00049

  1    21     -3.76973    1.99300
  1    22     -3.60684    1.83262
  1    23     -3.45822    0.71828
  1    24     -3.21548    0.00869


Fermi level: -3.48718

No gap
Writing to output.gpw (mode='')


Forces in eV/Ang:
  0 Li    0.02377    0.02377   -0.29720
  1 Li   -0.01594    0.02145   -0.24514
  2 Li   -0.00175   -0.00986   -0.27810
  3 Li    0.02145   -0.01594   -0.24514
  4 Li   -0.01326   -0.01326   -0.27090
  5 Li   -0.00763    0.01908   -0.28417
  6 Li   -0.00986   -0.00175   -0.27810
  7 Li    0.01908   -0.00763   -0.28417
  8 Li   -0.00701   -0.00701   -0.33319
  9 Li   -0.09299   -0.09299    0.28677
 10 Li    0.00238    0.05761    0.29980
 11 Li    0.07050   -0.06459    0.28936
 12 Li    0.05761    0.00238    0.29980
 13 Li    0.03435    0.03435   -1.21375
 14 Li   -0.08379    0.00001    0.32642
 15 Li   -0.06459    0.07050    0.28936
 16 Li    0.00001   -0.08379    0.32642
 17 Li    0.05591    0.05591    0.35724
 18 Li   -0.02287   -0.02287   -0.12719
 19 Li    0.18696   -0.15579    0.23464
 20 Li   -0.14286    0.07597    0.00097
 21 Li   -0.15579    0.18696    0.23464
 22 Li    0.16251    0.16251    0.21432
 23 Li   -0.02294    0.04100    0.04438
 24 Li    0.07597   -0.14286    0.00097
 25 Li    0.04100   -0.02294    0.04438
 26 Li   -0.05494   -0.05494    0.06155
 27 Li   -0.04320   -0.04320    0.82369
 28 Li    0.30509    0.50447   -0.49159
 29 Li    1.03161   -0.15165    0.28130
 30 Li    0.50447    0.30509   -0.49159
 31 Li    0.10144    0.10144    2.41512
 32 Li   -0.15545   -0.04843   -0.20412
 33 Li   -0.15165    1.03161    0.28130
 34 Li   -0.04843   -0.15545   -0.20412
 35 Li    0.04050    0.04050    0.03722
 36 N    -0.55463   -0.55463   -1.27986
 37 N    -1.09741   -1.09741   -0.63251

System changes: positions 

Initializing position-dependent things.

Density initialized from wave functions
       .-----------------------.  
      /|                       |  
     / |                       |  
    /  |                       |  
   /   |                       |  
  /    |                       |  
 *     |                       |  
 |     |                       |  
 |     |                       |  
 |     |                       |  
 |     |                       |  
 |     |                 Li   N|  
 |     |                     Li|  
 |     |    Li                 |  
 |   Li|             Li        |  
 |     |  LiN   LiLi      Li   |  
 |     | Li                    |  
 |     |Li      Li      Li     |  
 Li    |   Li                  |  
 |   LLi     LLi     LLi       |  
 |     |  Li      Li      Li   |  
 | Li  |   Li      Li          |  
 |     |Li      Li      Li     |  
 Li    | Li      Li            |  
 |    Li      Li      Li       |  
 |     |                       |  
 |     |                       |  
 |     |                       |  
 |     |                       |  
 |     |                       |  
 |     |                       |  
 |     .-----------------------.  
 |    /                       /   
 |   /                       /    
 |  /                       /     
 | /                       /      
 |/                       /       
 *-----------------------*        

Positions:
   0 Li     1.617037    1.617037   10.000000    ( 0.0000,  0.0000,  0.0000)
   1 Li     4.851111    1.617037   10.000000    ( 0.0000,  0.0000,  0.0000)
   2 Li     8.085185    1.617037   10.000000    ( 0.0000,  0.0000,  0.0000)
   3 Li     1.617037    4.851111   10.000000    ( 0.0000,  0.0000,  0.0000)
   4 Li     4.851111    4.851111   10.000000    ( 0.0000,  0.0000,  0.0000)
   5 Li     8.085185    4.851111   10.000000    ( 0.0000,  0.0000,  0.0000)
   6 Li     1.617037    8.085185   10.000000    ( 0.0000,  0.0000,  0.0000)
   7 Li     4.851111    8.085185   10.000000    ( 0.0000,  0.0000,  0.0000)
   8 Li     8.085185    8.085185   10.000000    ( 0.0000,  0.0000,  0.0000)
   9 Li     0.000000    0.000000   11.617037    ( 0.0000,  0.0000,  0.0000)
  10 Li     3.234074    0.000000   11.617037    ( 0.0000,  0.0000,  0.0000)
  11 Li     6.468148    0.000000   11.617037    ( 0.0000,  0.0000,  0.0000)
  12 Li     0.000000    3.234074   11.617037    ( 0.0000,  0.0000,  0.0000)
  13 Li     3.234074    3.234074   11.617037    ( 0.0000,  0.0000,  0.0000)
  14 Li     6.468148    3.234074   11.617037    ( 0.0000,  0.0000,  0.0000)
  15 Li     0.000000    6.468148   11.617037    ( 0.0000,  0.0000,  0.0000)
  16 Li     3.234074    6.468148   11.617037    ( 0.0000,  0.0000,  0.0000)
  17 Li     6.468148    6.468148   11.617037    ( 0.0000,  0.0000,  0.0000)
  18 Li     1.495383    1.495383   13.332988    ( 0.0000,  0.0000,  0.0000)
  19 Li     4.974229    1.434507   13.515336    ( 0.0000,  0.0000,  0.0000)
  20 Li     8.082084    1.713542   13.617842    ( 0.0000,  0.0000,  0.0000)
  21 Li     1.434507    4.974229   13.515336    ( 0.0000,  0.0000,  0.0000)
  22 Li     4.973774    4.973774   13.488140    ( 0.0000,  0.0000,  0.0000)
  23 Li     8.132743    4.776290   13.705630    ( 0.0000,  0.0000,  0.0000)
  24 Li     1.713542    8.082084   13.617842    ( 0.0000,  0.0000,  0.0000)
  25 Li     4.776290    8.132743   13.705630    ( 0.0000,  0.0000,  0.0000)
  26 Li     8.077830    8.077830   13.570899    ( 0.0000,  0.0000,  0.0000)
  27 Li     0.055589    0.055589   14.851476    ( 0.0000,  0.0000,  0.0000)
  28 Li     2.892100    1.003136   16.603953    ( 0.0000,  0.0000,  0.0000)
  29 Li     7.132194   -0.079444   16.109858    ( 0.0000,  0.0000,  0.0000)
  30 Li     1.003136    2.892100   16.603953    ( 0.0000,  0.0000,  0.0000)
  31 Li     3.219570    3.219570   13.642837    ( 0.0000,  0.0000,  0.0000)
  32 Li     5.325804    3.285101   16.272572    ( 0.0000,  0.0000,  0.0000)
  33 Li    -0.079444    7.132194   16.109858    ( 0.0000,  0.0000,  0.0000)
  34 Li     3.285101    5.325804   16.272572    ( 0.0000,  0.0000,  0.0000)
  35 Li     6.487159    6.487159   15.548779    ( 0.0000,  0.0000,  0.0000)
  36 N      9.217931    9.217931   16.628944    ( 0.0000,  0.0000,  0.0000)
  37 N      3.490818    3.490818   16.160269    ( 0.0000,  0.0000,  0.0000)

Unit cell:
           periodic     x           y           z      points  spacing
  1. axis:    yes    9.702222    0.000000    0.000000    60     0.1617
  2. axis:    yes    0.000000    9.702222    0.000000    60     0.1617
  3. axis:    no     0.000000    0.000000   24.851111   156     0.1593

  Lengths:   9.702222   9.702222  24.851111
  Angles:   90.000000  90.000000  90.000000

Effective grid spacing dv^(1/3) = 0.1609

     iter     time        total  log10-change:
                         energy  eigst   dens
iter:   1 14:04:34  -226.554293  -0.71
iter:   2 14:04:56  -226.546893  -1.35  -1.79
iter:   3 14:05:55  -226.540133c -1.91  -1.88
iter:   4 14:06:30  -226.537825c -2.21  -2.08
Writing to output.gpw (mode='')

iter:   5 14:07:11  -226.534535c -1.44  -2.17
iter:   6 14:07:40  -226.533244c -2.32  -2.27
iter:   7 14:08:05  -226.532256c -2.33  -2.40
iter:   8 14:08:24  -226.532121c -2.49  -2.62
iter:   9 14:09:05  -226.532156c -2.84  -2.73
Writing to output.gpw (mode='')

iter:  10 14:09:32  -226.532082c -3.36  -2.80
iter:  11 14:10:04  -226.532140c -2.96  -2.88
iter:  12 14:10:40  -226.532037c -3.49  -2.92
iter:  13 14:11:16  -226.532058c -3.58  -3.17
iter:  14 14:11:53  -226.532081c -3.93  -3.25
Writing to output.gpw (mode='')

iter:  15 14:12:17  -226.532102c -4.00  -3.46
iter:  16 14:12:35  -226.532095c -4.34  -3.48
iter:  17 14:12:55  -226.532080c -4.50  -3.57
iter:  18 14:13:29  -226.532075c -4.69  -3.72
iter:  19 14:13:48  -226.532077c -4.91  -3.81
Writing to output.gpw (mode='')

iter:  20 14:14:17  -226.532080c -5.01  -3.84
iter:  21 14:14:36  -226.532073c -5.02  -3.87
iter:  22 14:14:56  -226.532077c -5.34  -4.01c
iter:  23 14:15:16  -226.532083c -5.22  -4.10c
iter:  24 14:15:36  -226.532078c -5.43  -4.22c
Writing to output.gpw (mode='')

iter:  25 14:16:04  -226.532080c -5.60  -4.34c
iter:  26 14:17:00  -226.532082c -5.67  -4.43c
iter:  27 14:17:24  -226.532081c -5.87  -4.53c
iter:  28 14:17:45  -226.532082c -6.07  -4.58c
iter:  29 14:18:05  -226.532083c -6.20  -4.68c
Writing to output.gpw (mode='')

iter:  30 14:18:37  -226.532083c -6.24  -4.79c
iter:  31 14:18:55  -226.532082c -6.23  -4.91c
iter:  32 14:19:15  -226.532082c -6.48  -5.10c
iter:  33 14:19:35  -226.532082c -6.72  -5.11c
iter:  34 14:19:55  -226.532081c -6.74  -5.19c
Writing to output.gpw (mode='')

iter:  35 14:20:16  -226.532081c -6.85  -5.23c
iter:  36 14:20:36  -226.532081c -7.09  -5.32c
iter:  37 14:20:56  -226.532081c -7.14  -5.37c
iter:  38 14:21:14  -226.532082c -7.14  -5.39c
iter:  39 14:21:34  -226.532081c -7.32  -5.39c
Writing to output.gpw (mode='')

iter:  40 14:21:54  -226.532081c -7.46c -5.39c

Converged after 40 iterations.

Dipole moment: (2.494579, 2.494579, -0.033003) |e|*Ang

Energy contributions relative to reference atoms: (reference = -10263.804537)

Kinetic:        +73.809563
Potential:      -63.309444
External:        +0.000000
XC:            -237.264555
Entropy (-ST):   -0.157492
Local:           +0.311100
--------------------------
Free energy:   -226.610827
Extrapolated:  -226.532081

Dipole-layer corrected work functions: 3.437725, 3.501168 eV

Showing only first 2 kpts
 Kpt  Band  Eigenvalues  Occupancy
  0    21     -3.71517    1.98543
  0    22     -3.59513    1.85019
  0    23     -3.50643    1.35384
  0    24     -3.05097    0.00046

  1    21     -3.75435    1.99332
  1    22     -3.58827    1.83004
  1    23     -3.44065    0.71976
  1    24     -3.19448    0.00815


Fermi level: -3.46945

No gap

Forces in eV/Ang:
  0 Li    0.02457    0.02457   -0.29635
  1 Li   -0.01683    0.02178   -0.24273
  2 Li   -0.00128   -0.01040   -0.27931
  3 Li    0.02178   -0.01683   -0.24273
  4 Li   -0.01362   -0.01362   -0.26989
  5 Li   -0.00737    0.01939   -0.28538
  6 Li   -0.01040   -0.00128   -0.27931
  7 Li    0.01939   -0.00737   -0.28538
  8 Li   -0.00684   -0.00684   -0.33456
  9 Li   -0.09494   -0.09494    0.28284
 10 Li    0.00273    0.05854    0.30463
 11 Li    0.07180   -0.06671    0.29100
 12 Li    0.05854    0.00273    0.30463
 13 Li    0.03781    0.03781   -1.29236
 14 Li   -0.08835    0.00068    0.33078
 15 Li   -0.06671    0.07180    0.29100
 16 Li    0.00068   -0.08835    0.33078
 17 Li    0.05739    0.05739    0.35890
 18 Li    0.00540    0.00540   -0.13558
 19 Li    0.17224   -0.14104    0.23684
 20 Li   -0.15131    0.08162   -0.00791
 21 Li   -0.14104    0.17224    0.23684
 22 Li    0.15646    0.15646    0.20902
 23 Li   -0.02794    0.04218    0.03870
 24 Li    0.08162   -0.15131   -0.00791
 25 Li    0.04218   -0.02794    0.03870
 26 Li   -0.05947   -0.05947    0.06340
 27 Li   -0.09246   -0.09246    0.99192
 28 Li    0.36022    0.50814   -0.52071
 29 Li    1.00942   -0.15398    0.27416
 30 Li    0.50814    0.36022   -0.52071
 31 Li    0.09584    0.09584    2.45462
 32 Li   -0.07942   -0.06345   -0.21212
 33 Li   -0.15398    1.00942    0.27416
 34 Li   -0.06345   -0.07942   -0.21212
 35 Li    0.04763    0.04763    0.04483
 36 N    -0.55197   -0.55197   -1.39944
 37 N    -1.12521   -1.12521   -0.56300

System changes: positions 

Initializing position-dependent things.

Density initialized from wave functions
       .-----------------------.  
      /|                       |  
     / |                       |  
    /  |                       |  
   /   |                       |  
  /    |                       |  
 *     |                       |  
 |     |                       |  
 |     |                       |  
 |     |                       |  
 |     |                       |  
 |     |                 Li  N |  
 |     |                     Li|  
 |     |    Li                 |  
 |   Li|             Li        |  
 |     |  LiN   LiLi      Li   |  
 |     | Li                    |  
 |     |Li      Li      Li     |  
 Li    |   Li                  |  
 |   LLi     LLi     LLi       |  
 |     |  Li      Li      Li   |  
 | Li  |   Li      Li          |  
 |     |Li      Li      Li     |  
 Li    | Li      Li            |  
 |    Li      Li      Li       |  
 |     |                       |  
 |     |                       |  
 |     |                       |  
 |     |                       |  
 |     |                       |  
 |     |                       |  
 |     .-----------------------.  
 |    /                       /   
 |   /                       /    
 |  /                       /     
 | /                       /      
 |/                       /       
 *-----------------------*        

Positions:
   0 Li     1.617037    1.617037   10.000000    ( 0.0000,  0.0000,  0.0000)
   1 Li     4.851111    1.617037   10.000000    ( 0.0000,  0.0000,  0.0000)
   2 Li     8.085185    1.617037   10.000000    ( 0.0000,  0.0000,  0.0000)
   3 Li     1.617037    4.851111   10.000000    ( 0.0000,  0.0000,  0.0000)
   4 Li     4.851111    4.851111   10.000000    ( 0.0000,  0.0000,  0.0000)
   5 Li     8.085185    4.851111   10.000000    ( 0.0000,  0.0000,  0.0000)
   6 Li     1.617037    8.085185   10.000000    ( 0.0000,  0.0000,  0.0000)
   7 Li     4.851111    8.085185   10.000000    ( 0.0000,  0.0000,  0.0000)
   8 Li     8.085185    8.085185   10.000000    ( 0.0000,  0.0000,  0.0000)
   9 Li     0.000000    0.000000   11.617037    ( 0.0000,  0.0000,  0.0000)
  10 Li     3.234074    0.000000   11.617037    ( 0.0000,  0.0000,  0.0000)
  11 Li     6.468148    0.000000   11.617037    ( 0.0000,  0.0000,  0.0000)
  12 Li     0.000000    3.234074   11.617037    ( 0.0000,  0.0000,  0.0000)
  13 Li     3.234074    3.234074   11.617037    ( 0.0000,  0.0000,  0.0000)
  14 Li     6.468148    3.234074   11.617037    ( 0.0000,  0.0000,  0.0000)
  15 Li     0.000000    6.468148   11.617037    ( 0.0000,  0.0000,  0.0000)
  16 Li     3.234074    6.468148   11.617037    ( 0.0000,  0.0000,  0.0000)
  17 Li     6.468148    6.468148   11.617037    ( 0.0000,  0.0000,  0.0000)
  18 Li     1.492016    1.492016   13.330440    ( 0.0000,  0.0000,  0.0000)
  19 Li     4.980367    1.427483   13.522591    ( 0.0000,  0.0000,  0.0000)
  20 Li     8.079567    1.716949   13.623508    ( 0.0000,  0.0000,  0.0000)
  21 Li     1.427483    4.980367   13.522591    ( 0.0000,  0.0000,  0.0000)
  22 Li     4.979468    4.979468   13.494271    ( 0.0000,  0.0000,  0.0000)
  23 Li     8.133495    4.775079   13.712305    ( 0.0000,  0.0000,  0.0000)
  24 Li     1.716949    8.079567   13.623508    ( 0.0000,  0.0000,  0.0000)
  25 Li     4.775079    8.133495   13.712305    ( 0.0000,  0.0000,  0.0000)
  26 Li     8.077095    8.077095   13.575544    ( 0.0000,  0.0000,  0.0000)
  27 Li     0.055254    0.055254   14.816623    ( 0.0000,  0.0000,  0.0000)
  28 Li     2.890634    1.033456   16.616440    ( 0.0000,  0.0000,  0.0000)
  29 Li     7.167303   -0.084222   16.128419    ( 0.0000,  0.0000,  0.0000)
  30 Li     1.033456    2.890634   16.616440    ( 0.0000,  0.0000,  0.0000)
  31 Li     3.220241    3.220241   13.620898    ( 0.0000,  0.0000,  0.0000)
  32 Li     5.301990    3.284688   16.282435    ( 0.0000,  0.0000,  0.0000)
  33 Li    -0.084222    7.167303   16.128419    ( 0.0000,  0.0000,  0.0000)
  34 Li     3.284688    5.301990   16.282435    ( 0.0000,  0.0000,  0.0000)
  35 Li     6.488635    6.488635   15.551077    ( 0.0000,  0.0000,  0.0000)
  36 N      9.196179    9.196179   16.611159    ( 0.0000,  0.0000,  0.0000)
  37 N      3.472439    3.472439   16.151995    ( 0.0000,  0.0000,  0.0000)

Unit cell:
           periodic     x           y           z      points  spacing
  1. axis:    yes    9.702222    0.000000    0.000000    60     0.1617
  2. axis:    yes    0.000000    9.702222    0.000000    60     0.1617
  3. axis:    no     0.000000    0.000000   24.851111   156     0.1593

  Lengths:   9.702222   9.702222  24.851111
  Angles:   90.000000  90.000000  90.000000

Effective grid spacing dv^(1/3) = 0.1609

     iter     time        total  log10-change:
                         energy  eigst   dens
iter:   1 14:22:20  -226.670527  -0.71
iter:   2 14:22:41  -226.660539  -1.33  -1.77
iter:   3 14:23:01  -226.653600c -1.91  -1.87
iter:   4 14:23:22  -226.651026c -2.20  -2.09
Writing to output.gpw (mode='')

iter:   5 14:23:42  -226.647668c -1.45  -2.18
iter:   6 14:24:02  -226.646316c -2.33  -2.27
iter:   7 14:24:23  -226.645377c -2.32  -2.42
iter:   8 14:24:43  -226.645343c -2.51  -2.66
iter:   9 14:25:04  -226.645361c -2.91  -2.74
Writing to output.gpw (mode='')

iter:  10 14:25:22  -226.645286c -3.36  -2.81
iter:  11 14:25:39  -226.645319c -3.04  -2.90
iter:  12 14:25:58  -226.645246c -3.58  -2.97
iter:  13 14:26:19  -226.645268c -3.60  -3.19
iter:  14 14:26:50  -226.645281c -3.89  -3.27
Writing to output.gpw (mode='')

iter:  15 14:27:10  -226.645294c -4.17  -3.39
iter:  16 14:27:28  -226.645293c -4.31  -3.50
iter:  17 14:27:48  -226.645292c -4.58  -3.60
iter:  18 14:28:09  -226.645286c -4.71  -3.61
iter:  19 14:28:29  -226.645273c -4.80  -3.68
Writing to output.gpw (mode='')

iter:  20 14:28:49  -226.645273c -5.09  -3.85
iter:  21 14:29:07  -226.645271c -4.99  -3.92
iter:  22 14:29:58  -226.645272c -5.16  -4.15c
iter:  23 14:30:27  -226.645274c -5.43  -4.18c
iter:  24 14:30:48  -226.645275c -5.58  -4.19c
Writing to output.gpw (mode='')

iter:  25 14:31:08  -226.645275c -5.59  -4.18c
iter:  26 14:31:29  -226.645288c -5.63  -4.13c
iter:  27 14:31:49  -226.645286c -5.90  -4.40c
iter:  28 14:32:09  -226.645285c -6.13  -4.45c
iter:  29 14:32:30  -226.645283c -6.06  -4.46c
Writing to output.gpw (mode='')

iter:  30 14:32:52  -226.645281c -6.14  -4.76c
iter:  31 14:33:12  -226.645282c -6.33  -4.82c
iter:  32 14:33:32  -226.645282c -6.50  -4.89c
iter:  33 14:33:52  -226.645281c -6.55  -4.98c
iter:  34 14:34:13  -226.645282c -6.60  -5.06c
Writing to output.gpw (mode='')

iter:  35 14:34:34  -226.645282c -6.75  -5.16c
iter:  36 14:34:54  -226.645283c -6.81  -5.29c
iter:  37 14:35:13  -226.645283c -7.07  -5.40c
iter:  38 14:35:35  -226.645283c -7.11  -5.48c
iter:  39 14:35:56  -226.645283c -7.27  -5.54c
Writing to output.gpw (mode='')

iter:  40 14:36:17  -226.645283c -7.31  -5.55c
iter:  41 14:36:38  -226.645283c -7.34  -5.61c
iter:  42 14:36:58  -226.645283c -7.52c -5.66c

Converged after 42 iterations.

Dipole moment: (2.032607, 2.032607, -0.016441) |e|*Ang

Energy contributions relative to reference atoms: (reference = -10263.804537)

Kinetic:        +74.497388
Potential:      -63.779622
External:        +0.000000
XC:            -237.596843
Entropy (-ST):   -0.156938
Local:           +0.312263
--------------------------
Free energy:   -226.723752
Extrapolated:  -226.645283

Dipole-layer corrected work functions: 3.437664, 3.469269 eV

Showing only first 2 kpts
 Kpt  Band  Eigenvalues  Occupancy
  0    21     -3.70194    1.98620
  0    22     -3.57973    1.85180
  0    23     -3.49035    1.35294
  0    24     -3.03195    0.00044

  1    21     -3.74027    1.99357
  1    22     -3.57163    1.82796
  1    23     -3.42533    0.72583
  1    24     -3.17513    0.00762


Fermi level: -3.45347

No gap
Writing to output.gpw (mode='')


Forces in eV/Ang:
  0 Li    0.02525    0.02525   -0.29576
  1 Li   -0.01767    0.02206   -0.24075
  2 Li   -0.00077   -0.01096   -0.28048
  3 Li    0.02206   -0.01767   -0.24075
  4 Li   -0.01389   -0.01389   -0.26927
  5 Li   -0.00715    0.01961   -0.28640
  6 Li   -0.01096   -0.00077   -0.28048
  7 Li    0.01961   -0.00715   -0.28640
  8 Li   -0.00660   -0.00660   -0.33591
  9 Li   -0.09683   -0.09683    0.27826
 10 Li    0.00321    0.05916    0.30950
 11 Li    0.07305   -0.06869    0.29291
 12 Li    0.05916    0.00321    0.30950
 13 Li    0.04119    0.04119   -1.36011
 14 Li   -0.09271    0.00148    0.33522
 15 Li   -0.06869    0.07305    0.29291
 16 Li    0.00148   -0.09271    0.33522
 17 Li    0.05878    0.05878    0.36038
 18 Li    0.03343    0.03343   -0.14368
 19 Li    0.15744   -0.12651    0.23706
 20 Li   -0.15936    0.08772   -0.01636
 21 Li   -0.12651    0.15744    0.23706
 22 Li    0.15052    0.15052    0.20159
 23 Li   -0.03305    0.04291    0.03313
 24 Li    0.08772   -0.15936   -0.01636
 25 Li    0.04291   -0.03305    0.03313
 26 Li   -0.06456   -0.06456    0.06523
 27 Li   -0.13973   -0.13973    1.14274
 28 Li    0.41461    0.51131   -0.54811
 29 Li    0.95965   -0.15051    0.26243
 30 Li    0.51131    0.41461   -0.54811
 31 Li    0.09002    0.09002    2.48914
 32 Li   -0.02210   -0.07475   -0.21961
 33 Li   -0.15051    0.95965    0.26243
 34 Li   -0.07475   -0.02210   -0.21961
 35 Li    0.05487    0.05487    0.05304
 36 N    -0.47422   -0.47422   -1.47013
 37 N    -1.23403   -1.23403   -0.52653

System changes: positions 

Initializing position-dependent things.

Density initialized from wave functions
       .-----------------------.  
      /|                       |  
     / |                       |  
    /  |                       |  
   /   |                       |  
  /    |                       |  
 *     |                       |  
 |     |                       |  
 |     |                       |  
 |     |                       |  
 |     |                       |  
 |     |                 Li  N |  
 |     |                     Li|  
 |     |    Li                 |  
 |   Li|             Li        |  
 |     |  LiN   LiLi      Li   |  
 |     | Li                    |  
 |     |Li      Li      Li     |  
 |     |   Li                  |  
 Li  LLi     LLi     LLi       |  
 |     |  Li      Li      Li   |  
 | Li  |   Li      Li          |  
 |     |Li      Li      Li     |  
 Li    | Li      Li            |  
 |    Li      Li      Li       |  
 |     |                       |  
 |     |                       |  
 |     |                       |  
 |     |                       |  
 |     |                       |  
 |     |                       |  
 |     .-----------------------.  
 |    /                       /   
 |   /                       /    
 |  /                       /     
 | /                       /      
 |/                       /       
 *-----------------------*        

Positions:
   0 Li     1.617037    1.617037   10.000000    ( 0.0000,  0.0000,  0.0000)
   1 Li     4.851111    1.617037   10.000000    ( 0.0000,  0.0000,  0.0000)
   2 Li     8.085185    1.617037   10.000000    ( 0.0000,  0.0000,  0.0000)
   3 Li     1.617037    4.851111   10.000000    ( 0.0000,  0.0000,  0.0000)
   4 Li     4.851111    4.851111   10.000000    ( 0.0000,  0.0000,  0.0000)
   5 Li     8.085185    4.851111   10.000000    ( 0.0000,  0.0000,  0.0000)
   6 Li     1.617037    8.085185   10.000000    ( 0.0000,  0.0000,  0.0000)
   7 Li     4.851111    8.085185   10.000000    ( 0.0000,  0.0000,  0.0000)
   8 Li     8.085185    8.085185   10.000000    ( 0.0000,  0.0000,  0.0000)
   9 Li     0.000000    0.000000   11.617037    ( 0.0000,  0.0000,  0.0000)
  10 Li     3.234074    0.000000   11.617037    ( 0.0000,  0.0000,  0.0000)
  11 Li     6.468148    0.000000   11.617037    ( 0.0000,  0.0000,  0.0000)
  12 Li     0.000000    3.234074   11.617037    ( 0.0000,  0.0000,  0.0000)
  13 Li     3.234074    3.234074   11.617037    ( 0.0000,  0.0000,  0.0000)
  14 Li     6.468148    3.234074   11.617037    ( 0.0000,  0.0000,  0.0000)
  15 Li     0.000000    6.468148   11.617037    ( 0.0000,  0.0000,  0.0000)
  16 Li     3.234074    6.468148   11.617037    ( 0.0000,  0.0000,  0.0000)
  17 Li     6.468148    6.468148   11.617037    ( 0.0000,  0.0000,  0.0000)
  18 Li     1.488970    1.488970   13.327929    ( 0.0000,  0.0000,  0.0000)
  19 Li     4.986571    1.420506   13.530271    ( 0.0000,  0.0000,  0.0000)
  20 Li     8.076752    1.720428   13.629098    ( 0.0000,  0.0000,  0.0000)
  21 Li     1.420506    4.986571   13.530271    ( 0.0000,  0.0000,  0.0000)
  22 Li     4.985266    4.985266   13.500739    ( 0.0000,  0.0000,  0.0000)
  23 Li     8.134111    4.774009   13.718779    ( 0.0000,  0.0000,  0.0000)
  24 Li     1.720428    8.076752   13.629098    ( 0.0000,  0.0000,  0.0000)
  25 Li     4.774009    8.134111   13.718779    ( 0.0000,  0.0000,  0.0000)
  26 Li     8.076247    8.076247   13.580270    ( 0.0000,  0.0000,  0.0000)
  27 Li     0.054400    0.054400   14.782534    ( 0.0000,  0.0000,  0.0000)
  28 Li     2.890557    1.063447   16.626219    ( 0.0000,  0.0000,  0.0000)
  29 Li     7.202694   -0.089080   16.146416    ( 0.0000,  0.0000,  0.0000)
  30 Li     1.063447    2.890557   16.626219    ( 0.0000,  0.0000,  0.0000)
  31 Li     3.221012    3.221012   13.603906    ( 0.0000,  0.0000,  0.0000)
  32 Li     5.279483    3.284091   16.290698    ( 0.0000,  0.0000,  0.0000)
  33 Li    -0.089080    7.202694   16.146416    ( 0.0000,  0.0000,  0.0000)
  34 Li     3.284091    5.279483   16.290698    ( 0.0000,  0.0000,  0.0000)
  35 Li     6.490238    6.490238   15.553345    ( 0.0000,  0.0000,  0.0000)
  36 N      9.174813    9.174813   16.595794    ( 0.0000,  0.0000,  0.0000)
  37 N      3.451394    3.451394   16.146184    ( 0.0000,  0.0000,  0.0000)

Unit cell:
           periodic     x           y           z      points  spacing
  1. axis:    yes    9.702222    0.000000    0.000000    60     0.1617
  2. axis:    yes    0.000000    9.702222    0.000000    60     0.1617
  3. axis:    no     0.000000    0.000000   24.851111   156     0.1593

  Lengths:   9.702222   9.702222  24.851111
  Angles:   90.000000  90.000000  90.000000

Effective grid spacing dv^(1/3) = 0.1609

     iter     time        total  log10-change:
                         energy  eigst   dens
iter:   1 14:37:25  -226.795624  -0.71
iter:   2 14:37:44  -226.781586  -1.31  -1.74
iter:   3 14:38:05  -226.773932c -1.92  -1.86
iter:   4 14:38:26  -226.770962c -2.20  -2.09
Writing to output.gpw (mode='')

iter:   5 14:38:46  -226.767554c -1.45  -2.20
iter:   6 14:39:07  -226.766031c -2.37  -2.28
iter:   7 14:39:28  -226.765201c -2.29  -2.46
iter:   8 14:39:47  -226.765252c -2.53  -2.71
iter:   9 14:40:08  -226.765265c -2.97  -2.76
Writing to output.gpw (mode='')

iter:  10 14:40:28  -226.765165c -3.29  -2.82
iter:  11 14:40:48  -226.765192c -3.15  -2.99
iter:  12 14:41:08  -226.765180c -3.51  -3.03
iter:  13 14:41:29  -226.765189c -3.92  -3.20
iter:  14 14:41:48  -226.765187c -3.69  -3.20
Writing to output.gpw (mode='')

iter:  15 14:42:13  -226.765188c -4.33  -3.36
iter:  16 14:42:43  -226.765192c -4.31  -3.47
iter:  17 14:43:13  -226.765189c -4.65  -3.63
iter:  18 14:43:44  -226.765184c -4.74  -3.65
iter:  19 14:44:12  -226.765186c -4.93  -3.73
Writing to output.gpw (mode='')

iter:  20 14:44:46  -226.765186c -4.88  -3.73
iter:  21 14:46:09  -226.765186c -5.29  -3.75
iter:  22 14:47:12  -226.765185c -5.30  -3.75
iter:  23 14:48:26  -226.765173c -5.33  -3.75
iter:  24 14:49:40  -226.765173c -5.14  -3.93
Writing to output.gpw (mode='')

iter:  25 14:50:54  -226.765177c -5.57  -4.14c
iter:  26 14:51:22  -226.765180c -5.64  -4.17c
iter:  27 14:51:49  -226.765180c -5.82  -4.21c
iter:  28 14:52:20  -226.765181c -5.88  -4.29c
iter:  29 14:53:37  -226.765184c -6.00  -4.34c
Writing to output.gpw (mode='')

iter:  30 14:55:00  -226.765185c -6.19  -4.46c
iter:  31 14:56:33  -226.765184c -6.36  -4.54c
iter:  32 14:58:26  -226.765184c -6.45  -4.68c
iter:  33 15:00:04  -226.765184c -6.53  -4.81c
iter:  34 15:03:08  -226.765184c -6.81  -4.86c
Writing to output.gpw (mode='')

iter:  35 15:07:54  -226.765183c -6.80  -4.88c
iter:  36 15:13:00  -226.765183c -7.00  -4.93c
iter:  37 15:16:37  -226.765183c -6.99  -5.12c
iter:  38 15:23:25  -226.765183c -7.20  -5.25c
iter:  39 15:27:36  -226.765183c -7.16  -5.25c
Writing to output.gpw (mode='')

iter:  40 15:33:52  -226.765183c -7.37  -5.25c
iter:  41 15:38:18  -226.765183c -7.52c -5.45c

Converged after 41 iterations.

Dipole moment: (1.614859, 1.614859, -0.002430) |e|*Ang

Energy contributions relative to reference atoms: (reference = -10263.804537)

Kinetic:        +75.270777
Potential:      -64.318392
External:        +0.000000
XC:            -237.951954
Entropy (-ST):   -0.156428
Local:           +0.312600
--------------------------
Free energy:   -226.843397
Extrapolated:  -226.765183

Dipole-layer corrected work functions: 3.437185, 3.441856 eV

Showing only first 2 kpts
 Kpt  Band  Eigenvalues  Occupancy
  0    21     -3.69043    1.98685
  0    22     -3.56699    1.85507
  0    23     -3.47659    1.35458
  0    24     -3.01530    0.00041

  1    21     -3.72778    1.99375
  1    22     -3.55743    1.82715
  1    23     -3.41278    0.73875
  1    24     -3.15764    0.00710


Fermi level: -3.43952

No gap
Writing to output.gpw (mode='')


Forces in eV/Ang:
  0 Li    0.02582    0.02582   -0.29552
  1 Li   -0.01847    0.02231   -0.23931
  2 Li   -0.00018   -0.01157   -0.28152
  3 Li    0.02231   -0.01847   -0.23931
  4 Li   -0.01411   -0.01411   -0.26917
  5 Li   -0.00700    0.01974   -0.28716
  6 Li   -0.01157   -0.00018   -0.28152
  7 Li    0.01974   -0.00700   -0.28716
  8 Li   -0.00628   -0.00628   -0.33717
  9 Li   -0.09865   -0.09865    0.27298
 10 Li    0.00381    0.05938    0.31443
 11 Li    0.07426   -0.07059    0.29514
 12 Li    0.05938    0.00381    0.31443
 13 Li    0.04450    0.04450   -1.41278
 14 Li   -0.09688    0.00243    0.33982
 15 Li   -0.07059    0.07426    0.29514
 16 Li    0.00243   -0.09688    0.33982
 17 Li    0.06013    0.06013    0.36162
 18 Li    0.06156    0.06156   -0.15163
 19 Li    0.14254   -0.11230    0.23484
 20 Li   -0.16694    0.09421   -0.02433
 21 Li   -0.11230    0.14254    0.23484
 22 Li    0.14492    0.14492    0.19122
 23 Li   -0.03831    0.04323    0.02777
 24 Li    0.09421   -0.16694   -0.02433
 25 Li    0.04323   -0.03831    0.02777
 26 Li   -0.07021   -0.07021    0.06675
 27 Li   -0.18418   -0.18418    1.27766
 28 Li    0.46714    0.51497   -0.57265
 29 Li    0.87555   -0.13824    0.24505
 30 Li    0.51497    0.46714   -0.57265
 31 Li    0.08308    0.08308    2.51527
 32 Li    0.01285   -0.08277   -0.22745
 33 Li   -0.13824    0.87555    0.24505
 34 Li   -0.08277    0.01285   -0.22745
 35 Li    0.06215    0.06215    0.06177
 36 N    -0.41141   -0.41141   -1.61566
 37 N    -1.26250   -1.26250   -0.34632

System changes: positions 

Initializing position-dependent things.

Density initialized from wave functions
       .-----------------------.  
      /|                       |  
     / |                       |  
    /  |                       |  
   /   |                       |  
  /    |                       |  
 *     |                       |  
 |     |                       |  
 |     |                       |  
 |     |                       |  
 |     |                       |  
 |     |                 Li  N |  
 |     |                     Li|  
 |     |    Li                 |  
 |   Li|             Li        |  
 |     |  LiN   LiLi      Li   |  
 |     | Li                    |  
 |     |Li      Li      Li     |  
 |     |   Li                  |  
 Li  LLi     LLi     LLi       |  
 |     |  Li      Li      Li   |  
 | Li  |   Li      Li          |  
 |     |Li      Li      Li     |  
 Li    | Li      Li            |  
 |    Li      Li      Li       |  
 |     |                       |  
 |     |                       |  
 |     |                       |  
 |     |                       |  
 |     |                       |  
 |     |                       |  
 |     .-----------------------.  
 |    /                       /   
 |   /                       /    
 |  /                       /     
 | /                       /      
 |/                       /       
 *-----------------------*        

Positions:
   0 Li     1.617037    1.617037   10.000000    ( 0.0000,  0.0000,  0.0000)
   1 Li     4.851111    1.617037   10.000000    ( 0.0000,  0.0000,  0.0000)
   2 Li     8.085185    1.617037   10.000000    ( 0.0000,  0.0000,  0.0000)
   3 Li     1.617037    4.851111   10.000000    ( 0.0000,  0.0000,  0.0000)
   4 Li     4.851111    4.851111   10.000000    ( 0.0000,  0.0000,  0.0000)
   5 Li     8.085185    4.851111   10.000000    ( 0.0000,  0.0000,  0.0000)
   6 Li     1.617037    8.085185   10.000000    ( 0.0000,  0.0000,  0.0000)
   7 Li     4.851111    8.085185   10.000000    ( 0.0000,  0.0000,  0.0000)
   8 Li     8.085185    8.085185   10.000000    ( 0.0000,  0.0000,  0.0000)
   9 Li     0.000000    0.000000   11.617037    ( 0.0000,  0.0000,  0.0000)
  10 Li     3.234074    0.000000   11.617037    ( 0.0000,  0.0000,  0.0000)
  11 Li     6.468148    0.000000   11.617037    ( 0.0000,  0.0000,  0.0000)
  12 Li     0.000000    3.234074   11.617037    ( 0.0000,  0.0000,  0.0000)
  13 Li     3.234074    3.234074   11.617037    ( 0.0000,  0.0000,  0.0000)
  14 Li     6.468148    3.234074   11.617037    ( 0.0000,  0.0000,  0.0000)
  15 Li     0.000000    6.468148   11.617037    ( 0.0000,  0.0000,  0.0000)
  16 Li     3.234074    6.468148   11.617037    ( 0.0000,  0.0000,  0.0000)
  17 Li     6.468148    6.468148   11.617037    ( 0.0000,  0.0000,  0.0000)
  18 Li     1.486302    1.486302   13.325458    ( 0.0000,  0.0000,  0.0000)
  19 Li     4.992851    1.413536   13.538492    ( 0.0000,  0.0000,  0.0000)
  20 Li     8.073587    1.724049   13.634715    ( 0.0000,  0.0000,  0.0000)
  21 Li     1.413536    4.992851   13.538492    ( 0.0000,  0.0000,  0.0000)
  22 Li     4.991217    4.991217   13.507606    ( 0.0000,  0.0000,  0.0000)
  23 Li     8.134588    4.773048   13.725143    ( 0.0000,  0.0000,  0.0000)
  24 Li     1.724049    8.073587   13.634715    ( 0.0000,  0.0000,  0.0000)
  25 Li     4.773048    8.134588   13.725143    ( 0.0000,  0.0000,  0.0000)
  26 Li     8.075263    8.075263   13.585162    ( 0.0000,  0.0000,  0.0000)
  27 Li     0.052785    0.052785   14.748423    ( 0.0000,  0.0000,  0.0000)
  28 Li     2.892053    1.093481   16.633340    ( 0.0000,  0.0000,  0.0000)
  29 Li     7.238304   -0.093980   16.163964    ( 0.0000,  0.0000,  0.0000)
  30 Li     1.093481    2.892053   16.633340    ( 0.0000,  0.0000,  0.0000)
  31 Li     3.221842    3.221842   13.592364    ( 0.0000,  0.0000,  0.0000)
  32 Li     5.258390    3.283213   16.297275    ( 0.0000,  0.0000,  0.0000)
  33 Li    -0.093980    7.238304   16.163964    ( 0.0000,  0.0000,  0.0000)
  34 Li     3.283213    5.258390   16.297275    ( 0.0000,  0.0000,  0.0000)
  35 Li     6.492031    6.492031   15.555632    ( 0.0000,  0.0000,  0.0000)
  36 N      9.153370    9.153370   16.582463    ( 0.0000,  0.0000,  0.0000)
  37 N      3.427318    3.427318   16.143351    ( 0.0000,  0.0000,  0.0000)

Unit cell:
           periodic     x           y           z      points  spacing
  1. axis:    yes    9.702222    0.000000    0.000000    60     0.1617
  2. axis:    yes    0.000000    9.702222    0.000000    60     0.1617
  3. axis:    no     0.000000    0.000000   24.851111   156     0.1593

  Lengths:   9.702222   9.702222  24.851111
  Angles:   90.000000  90.000000  90.000000

Effective grid spacing dv^(1/3) = 0.1609

     iter     time        total  log10-change:
                         energy  eigst   dens
iter:   1 15:43:30  -226.931677  -0.69
iter:   2 15:48:19  -226.910949  -1.28  -1.68
iter:   3 15:54:46  -226.901885  -1.92  -1.84
iter:   4 16:02:33  -226.898264c -2.18  -2.08
Writing to output.gpw (mode='')

iter:   5 16:06:06  -226.894672c -1.43  -2.20
iter:   6 16:07:11  -226.892908c -2.39  -2.27
iter:   7 16:07:27  -226.892200c -2.23  -2.50
iter:   8 16:07:45  -226.892325c -2.59  -2.75
iter:   9 16:08:02  -226.892335c -3.03  -2.77
Writing to output.gpw (mode='')

iter:  10 16:08:19  -226.892258c -3.22  -2.83
iter:  11 16:08:36  -226.892262c -3.38  -3.00
iter:  12 16:08:53  -226.892252c -3.62  -3.09
iter:  13 16:09:10  -226.892288c -3.80  -3.15
iter:  14 16:09:27  -226.892232c -3.75  -3.08
Writing to output.gpw (mode='')

iter:  15 16:09:44  -226.892256c -3.82  -3.35
iter:  16 16:10:02  -226.892268c -4.15  -3.30
iter:  17 16:10:19  -226.892262c -4.54  -3.34
iter:  18 16:10:36  -226.892266c -4.59  -3.55
iter:  19 16:10:53  -226.892256c -4.66  -3.63
Writing to output.gpw (mode='')

iter:  20 16:11:10  -226.892254c -4.89  -3.75
iter:  21 16:11:27  -226.892251c -5.16  -3.81
iter:  22 16:11:44  -226.892250c -5.12  -3.88
iter:  23 16:12:01  -226.892251c -5.55  -4.04c
iter:  24 16:12:18  -226.892254c -5.52  -4.05c
Writing to output.gpw (mode='')

iter:  25 16:12:36  -226.892255c -5.60  -4.12c
iter:  26 16:12:53  -226.892257c -5.82  -4.21c
iter:  27 16:13:10  -226.892257c -6.00  -4.30c
iter:  28 16:13:27  -226.892257c -6.15  -4.35c
iter:  29 16:13:44  -226.892255c -6.23  -4.43c
Writing to output.gpw (mode='')

iter:  30 16:14:01  -226.892255c -6.49  -4.60c
iter:  31 16:14:18  -226.892255c -6.56  -4.66c
iter:  32 16:14:35  -226.892254c -6.42  -4.87c
iter:  33 16:14:52  -226.892255c -6.78  -5.02c
iter:  34 16:15:09  -226.892255c -6.81  -5.11c
Writing to output.gpw (mode='')

iter:  35 16:15:28  -226.892255c -6.89  -5.13c
iter:  36 16:15:45  -226.892255c -7.04  -5.16c
iter:  37 16:16:02  -226.892255c -7.10  -5.34c
iter:  38 16:16:19  -226.892255c -7.45c -5.47c

Converged after 38 iterations.

Dipole moment: (1.232728, 1.232728, 0.009042) |e|*Ang

Energy contributions relative to reference atoms: (reference = -10263.804537)

Kinetic:        +76.146573
Potential:      -64.938844
External:        +0.000000
XC:            -238.335838
Entropy (-ST):   -0.155903
Local:           +0.313806
--------------------------
Free energy:   -226.970207
Extrapolated:  -226.892255

Dipole-layer corrected work functions: 3.436278, 3.418897 eV

Showing only first 2 kpts
 Kpt  Band  Eigenvalues  Occupancy
  0    21     -3.68058    1.98739
  0    22     -3.55704    1.86030
  0    23     -3.46519    1.35921
  0    24     -3.00133    0.00040

  1    21     -3.71689    1.99388
  1    22     -3.54574    1.82793
  1    23     -3.40303    0.75924
  1    24     -3.14195    0.00659


Fermi level: -3.42759

No gap
Writing to output.gpw (mode='')


Forces in eV/Ang:
  0 Li    0.02626    0.02626   -0.29578
  1 Li   -0.01924    0.02256   -0.23855
  2 Li    0.00047   -0.01218   -0.28244
  3 Li    0.02256   -0.01924   -0.23855
  4 Li   -0.01427   -0.01427   -0.26971
  5 Li   -0.00692    0.01971   -0.28763
  6 Li   -0.01218    0.00047   -0.28244
  7 Li    0.01971   -0.00692   -0.28763
  8 Li   -0.00586   -0.00586   -0.33839
  9 Li   -0.10037   -0.10037    0.26688
 10 Li    0.00453    0.05914    0.31949
 11 Li    0.07544   -0.07243    0.29783
 12 Li    0.05914    0.00453    0.31949
 13 Li    0.04779    0.04779   -1.44746
 14 Li   -0.10088    0.00353    0.34460
 15 Li   -0.07243    0.07544    0.29783
 16 Li    0.00353   -0.10088    0.34460
 17 Li    0.06147    0.06147    0.36268
 18 Li    0.08949    0.08949   -0.15927
 19 Li    0.12771   -0.09861    0.22981
 20 Li   -0.17411    0.10128   -0.03184
 21 Li   -0.09861    0.12771    0.22981
 22 Li    0.13980    0.13980    0.17776
 23 Li   -0.04379    0.04312    0.02246
 24 Li    0.10128   -0.17411   -0.03184
 25 Li    0.04312   -0.04379    0.02246
 26 Li   -0.07673   -0.07673    0.06794
 27 Li   -0.22545   -0.22545    1.39838
 28 Li    0.51702    0.51798   -0.59390
 29 Li    0.74819   -0.11452    0.22008
 30 Li    0.51798    0.51702   -0.59390
 31 Li    0.07558    0.07558    2.53011
 32 Li    0.02146   -0.08747   -0.23644
 33 Li   -0.11452    0.74819    0.22008
 34 Li   -0.08747    0.02146   -0.23644
 35 Li    0.06947    0.06947    0.07119
 36 N    -0.27399   -0.27399   -1.59982
 37 N    -1.31723   -1.31723   -0.26694

System changes: positions 

Initializing position-dependent things.

Density initialized from wave functions
       .-----------------------.  
      /|                       |  
     / |                       |  
    /  |                       |  
   /   |                       |  
  /    |                       |  
 *     |                       |  
 |     |                       |  
 |     |                       |  
 |     |                       |  
 |     |                       |  
 |     |                 Li  N |  
 |     |                     Li|  
 |     |    Li                 |  
 |    Li             Li        |  
 |     |  LiN   LiLi      Li   |  
 |     | Li                    |  
 |     |Li      Li      Li     |  
 |     |   Li                  |  
 Li  LLi     LLi     LLi       |  
 |     |  Li      Li      Li   |  
 | Li  |   Li      Li          |  
 |     |Li      Li      Li     |  
 Li    | Li      Li            |  
 |    Li      Li      Li       |  
 |     |                       |  
 |     |                       |  
 |     |                       |  
 |     |                       |  
 |     |                       |  
 |     |                       |  
 |     .-----------------------.  
 |    /                       /   
 |   /                       /    
 |  /                       /     
 | /                       /      
 |/                       /       
 *-----------------------*        

Positions:
   0 Li     1.617037    1.617037   10.000000    ( 0.0000,  0.0000,  0.0000)
   1 Li     4.851111    1.617037   10.000000    ( 0.0000,  0.0000,  0.0000)
   2 Li     8.085185    1.617037   10.000000    ( 0.0000,  0.0000,  0.0000)
   3 Li     1.617037    4.851111   10.000000    ( 0.0000,  0.0000,  0.0000)
   4 Li     4.851111    4.851111   10.000000    ( 0.0000,  0.0000,  0.0000)
   5 Li     8.085185    4.851111   10.000000    ( 0.0000,  0.0000,  0.0000)
   6 Li     1.617037    8.085185   10.000000    ( 0.0000,  0.0000,  0.0000)
   7 Li     4.851111    8.085185   10.000000    ( 0.0000,  0.0000,  0.0000)
   8 Li     8.085185    8.085185   10.000000    ( 0.0000,  0.0000,  0.0000)
   9 Li     0.000000    0.000000   11.617037    ( 0.0000,  0.0000,  0.0000)
  10 Li     3.234074    0.000000   11.617037    ( 0.0000,  0.0000,  0.0000)
  11 Li     6.468148    0.000000   11.617037    ( 0.0000,  0.0000,  0.0000)
  12 Li     0.000000    3.234074   11.617037    ( 0.0000,  0.0000,  0.0000)
  13 Li     3.234074    3.234074   11.617037    ( 0.0000,  0.0000,  0.0000)
  14 Li     6.468148    3.234074   11.617037    ( 0.0000,  0.0000,  0.0000)
  15 Li     0.000000    6.468148   11.617037    ( 0.0000,  0.0000,  0.0000)
  16 Li     3.234074    6.468148   11.617037    ( 0.0000,  0.0000,  0.0000)
  17 Li     6.468148    6.468148   11.617037    ( 0.0000,  0.0000,  0.0000)
  18 Li     1.484068    1.484068   13.323095    ( 0.0000,  0.0000,  0.0000)
  19 Li     4.999328    1.406546   13.547472    ( 0.0000,  0.0000,  0.0000)
  20 Li     8.069926    1.727801   13.640274    ( 0.0000,  0.0000,  0.0000)
  21 Li     1.406546    4.999328   13.547472    ( 0.0000,  0.0000,  0.0000)
  22 Li     4.997407    4.997407   13.515094    ( 0.0000,  0.0000,  0.0000)
  23 Li     8.134851    4.772313   13.731219    ( 0.0000,  0.0000,  0.0000)
  24 Li     1.727801    8.069926   13.640274    ( 0.0000,  0.0000,  0.0000)
  25 Li     4.772313    8.134851   13.731219    ( 0.0000,  0.0000,  0.0000)
  26 Li     8.074084    8.074084   13.590212    ( 0.0000,  0.0000,  0.0000)
  27 Li     0.050447    0.050447   14.715171    ( 0.0000,  0.0000,  0.0000)
  28 Li     2.895737    1.123075   16.635976    ( 0.0000,  0.0000,  0.0000)
  29 Li     7.273923   -0.098809   16.180536    ( 0.0000,  0.0000,  0.0000)
  30 Li     1.123075    2.895737   16.635976    ( 0.0000,  0.0000,  0.0000)
  31 Li     3.222858    3.222858   13.589074    ( 0.0000,  0.0000,  0.0000)
  32 Li     5.238979    3.282062   16.300995    ( 0.0000,  0.0000,  0.0000)
  33 Li    -0.098809    7.273923   16.180536    ( 0.0000,  0.0000,  0.0000)
  34 Li     3.282062    5.238979   16.300995    ( 0.0000,  0.0000,  0.0000)
  35 Li     6.494034    6.494034   15.557863    ( 0.0000,  0.0000,  0.0000)
  36 N      9.132561    9.132561   16.573845    ( 0.0000,  0.0000,  0.0000)
  37 N      3.399053    3.399053   16.144816    ( 0.0000,  0.0000,  0.0000)

Unit cell:
           periodic     x           y           z      points  spacing
  1. axis:    yes    9.702222    0.000000    0.000000    60     0.1617
  2. axis:    yes    0.000000    9.702222    0.000000    60     0.1617
  3. axis:    no     0.000000    0.000000   24.851111   156     0.1593

  Lengths:   9.702222   9.702222  24.851111
  Angles:   90.000000  90.000000  90.000000

Effective grid spacing dv^(1/3) = 0.1609

     iter     time        total  log10-change:
                         energy  eigst   dens
iter:   1 16:16:40  -227.089751  -0.67
iter:   2 16:16:58  -227.055759  -1.23  -1.59
iter:   3 16:17:15  -227.043747  -1.89  -1.80
iter:   4 16:17:32  -227.038840c -2.13  -2.07
Writing to output.gpw (mode='')

iter:   5 16:17:49  -227.035310c -1.41  -2.20
iter:   6 16:18:06  -227.033600c -2.42  -2.26
iter:   7 16:18:23  -227.032746c -2.13  -2.54
iter:   8 16:18:40  -227.032888c -2.65  -2.76
iter:   9 16:18:57  -227.032902c -3.06  -2.76
Writing to output.gpw (mode='')

iter:  10 16:19:14  -227.032857c -3.14  -2.81
iter:  11 16:19:32  -227.032870c -3.28  -2.95
iter:  12 16:19:49  -227.032853c -3.57  -3.07
iter:  13 16:20:06  -227.032905c -3.61  -3.07
iter:  14 16:20:23  -227.032849c -3.69  -2.97
Writing to output.gpw (mode='')

iter:  15 16:20:40  -227.032909c -3.41  -3.34
iter:  16 16:20:57  -227.032842c -4.26  -3.32
iter:  17 16:21:14  -227.032838c -4.51  -3.62
iter:  18 16:21:31  -227.032842c -4.67  -3.63
iter:  19 16:21:49  -227.032839c -4.82  -3.79
Writing to output.gpw (mode='')

iter:  20 16:22:06  -227.032841c -5.04  -3.83
iter:  21 16:22:23  -227.032841c -5.16  -3.87
iter:  22 16:22:40  -227.032845c -5.22  -3.94
iter:  23 16:22:57  -227.032846c -5.43  -4.11c
iter:  24 16:23:14  -227.032847c -5.67  -4.13c
Writing to output.gpw (mode='')

iter:  25 16:23:31  -227.032847c -5.66  -4.15c
iter:  26 16:23:48  -227.032849c -5.72  -4.39c
iter:  27 16:24:05  -227.032850c -5.79  -4.49c
iter:  28 16:24:22  -227.032849c -6.02  -4.54c
iter:  29 16:24:39  -227.032849c -6.14  -4.57c
Writing to output.gpw (mode='')

iter:  30 16:24:56  -227.032849c -6.42  -4.56c
iter:  31 16:25:13  -227.032850c -6.45  -4.55c
iter:  32 16:25:31  -227.032849c -6.70  -4.48c
iter:  33 16:25:48  -227.032849c -6.65  -4.50c
iter:  34 16:26:05  -227.032849c -6.64  -4.49c
Writing to output.gpw (mode='')

iter:  35 16:26:22  -227.032848c -6.96  -4.49c
iter:  36 16:26:39  -227.032847c -6.86  -4.64c
iter:  37 16:26:56  -227.032847c -7.11  -4.98c
iter:  38 16:27:13  -227.032847c -7.04  -5.03c
iter:  39 16:27:30  -227.032847c -7.24  -5.22c
Writing to output.gpw (mode='')

iter:  40 16:27:47  -227.032847c -7.36  -5.24c
iter:  41 16:28:04  -227.032847c -7.44c -5.27c

Converged after 41 iterations.

Dipole moment: (0.900131, 0.900131, 0.016031) |e|*Ang

Energy contributions relative to reference atoms: (reference = -10263.804537)

Kinetic:        +77.115900
Potential:      -65.641012
External:        +0.000000
XC:            -238.744479
Entropy (-ST):   -0.155277
Local:           +0.314382
--------------------------
Free energy:   -227.110486
Extrapolated:  -227.032847

Dipole-layer corrected work functions: 3.434776, 3.403960 eV

Showing only first 2 kpts
 Kpt  Band  Eigenvalues  Occupancy
  0    21     -3.67376    1.98773
  0    22     -3.55201    1.86838
  0    23     -3.45813    1.36930
  0    24     -2.99256    0.00039

  1    21     -3.70917    1.99394
  1    22     -3.53862    1.83137
  1    23     -3.39825    0.79194
  1    24     -3.12968    0.00607


Fermi level: -3.41937

No gap
Writing to output.gpw (mode='')


Forces in eV/Ang:
  0 Li    0.02655    0.02655   -0.29684
  1 Li   -0.01996    0.02277   -0.23883
  2 Li    0.00118   -0.01290   -0.28312
  3 Li    0.02277   -0.01996   -0.23883
  4 Li   -0.01438   -0.01438   -0.27128
  5 Li   -0.00689    0.01958   -0.28764
  6 Li   -0.01290    0.00118   -0.28312
  7 Li    0.01958   -0.00689   -0.28764
  8 Li   -0.00533   -0.00533   -0.33949
  9 Li   -0.10198   -0.10198    0.26020
 10 Li    0.00544    0.05825    0.32481
 11 Li    0.07664   -0.07428    0.30104
 12 Li    0.05825    0.00544    0.32481
 13 Li    0.05099    0.05099   -1.45330
 14 Li   -0.10462    0.00479    0.34973
 15 Li   -0.07428    0.07664    0.30104
 16 Li    0.00479   -0.10462    0.34973
 17 Li    0.06285    0.06285    0.36342
 18 Li    0.11679    0.11679   -0.16655
 19 Li    0.11330   -0.08589    0.22100
 20 Li   -0.18044    0.10888   -0.03889
 21 Li   -0.08589    0.11330    0.22100
 22 Li    0.13578    0.13578    0.16009
 23 Li   -0.04944    0.04251    0.01736
 24 Li    0.10888   -0.18044   -0.03889
 25 Li    0.04251   -0.04944    0.01736
 26 Li   -0.08415   -0.08415    0.06754
 27 Li   -0.26385   -0.26385    1.50515
 28 Li    0.55931    0.52050   -0.60822
 29 Li    0.57510   -0.07617    0.19097
 30 Li    0.52050    0.55931   -0.60822
 31 Li    0.06694    0.06694    2.52635
 32 Li   -0.00332   -0.08941   -0.24625
 33 Li   -0.07617    0.57510    0.19097
 34 Li   -0.08941   -0.00332   -0.24625
 35 Li    0.07664    0.07664    0.08139
 36 N    -0.16057   -0.16057   -1.64741
 37 N    -1.33639   -1.33639   -0.24175

System changes: positions 

Initializing position-dependent things.

Density initialized from wave functions
       .-----------------------.  
      /|                       |  
     / |                       |  
    /  |                       |  
   /   |                       |  
  /    |                       |  
 *     |                       |  
 |     |                       |  
 |     |                       |  
 |     |                       |  
 |     |                       |  
 |     |                 Li  N |  
 |     |                     Li|  
 |     |    Li                 |  
 |    Li             Li        |  
 |     |  LN    LiLi      Li   |  
 |     | Li                    |  
 |     |Li      Li      Li     |  
 |     |   Li                  |  
 Li  LLi     LLi     LLi       |  
 |     |  Li      Li      Li   |  
 | Li  |   Li      Li          |  
 |     |Li      Li      Li     |  
 Li    | Li      Li            |  
 |    Li      Li      Li       |  
 |     |                       |  
 |     |                       |  
 |     |                       |  
 |     |                       |  
 |     |                       |  
 |     |                       |  
 |     .-----------------------.  
 |    /                       /   
 |   /                       /    
 |  /                       /     
 | /                       /      
 |/                       /       
 *-----------------------*        

Positions:
   0 Li     1.617037    1.617037   10.000000    ( 0.0000,  0.0000,  0.0000)
   1 Li     4.851111    1.617037   10.000000    ( 0.0000,  0.0000,  0.0000)
   2 Li     8.085185    1.617037   10.000000    ( 0.0000,  0.0000,  0.0000)
   3 Li     1.617037    4.851111   10.000000    ( 0.0000,  0.0000,  0.0000)
   4 Li     4.851111    4.851111   10.000000    ( 0.0000,  0.0000,  0.0000)
   5 Li     8.085185    4.851111   10.000000    ( 0.0000,  0.0000,  0.0000)
   6 Li     1.617037    8.085185   10.000000    ( 0.0000,  0.0000,  0.0000)
   7 Li     4.851111    8.085185   10.000000    ( 0.0000,  0.0000,  0.0000)
   8 Li     8.085185    8.085185   10.000000    ( 0.0000,  0.0000,  0.0000)
   9 Li     0.000000    0.000000   11.617037    ( 0.0000,  0.0000,  0.0000)
  10 Li     3.234074    0.000000   11.617037    ( 0.0000,  0.0000,  0.0000)
  11 Li     6.468148    0.000000   11.617037    ( 0.0000,  0.0000,  0.0000)
  12 Li     0.000000    3.234074   11.617037    ( 0.0000,  0.0000,  0.0000)
  13 Li     3.234074    3.234074   11.617037    ( 0.0000,  0.0000,  0.0000)
  14 Li     6.468148    3.234074   11.617037    ( 0.0000,  0.0000,  0.0000)
  15 Li     0.000000    6.468148   11.617037    ( 0.0000,  0.0000,  0.0000)
  16 Li     3.234074    6.468148   11.617037    ( 0.0000,  0.0000,  0.0000)
  17 Li     6.468148    6.468148   11.617037    ( 0.0000,  0.0000,  0.0000)
  18 Li     1.482577    1.482577   13.321052    ( 0.0000,  0.0000,  0.0000)
  19 Li     5.005093    1.400445   13.555894    ( 0.0000,  0.0000,  0.0000)
  20 Li     8.066301    1.731245   13.645082    ( 0.0000,  0.0000,  0.0000)
  21 Li     1.400445    5.005093   13.555894    ( 0.0000,  0.0000,  0.0000)
  22 Li     5.003013    5.003013   13.522052    ( 0.0000,  0.0000,  0.0000)
  23 Li     8.134894    4.771826   13.736331    ( 0.0000,  0.0000,  0.0000)
  24 Li     1.731245    8.066301   13.645082    ( 0.0000,  0.0000,  0.0000)
  25 Li     4.771826    8.134894   13.736331    ( 0.0000,  0.0000,  0.0000)
  26 Li     8.072858    8.072858   13.594767    ( 0.0000,  0.0000,  0.0000)
  27 Li     0.047600    0.047600   14.686958    ( 0.0000,  0.0000,  0.0000)
  28 Li     2.900806    1.148835   16.634970    ( 0.0000,  0.0000,  0.0000)
  29 Li     7.304297   -0.102751   16.194295    ( 0.0000,  0.0000,  0.0000)
  30 Li     1.148835    2.900806   16.634970    ( 0.0000,  0.0000,  0.0000)
  31 Li     3.223814    3.223814   13.592321    ( 0.0000,  0.0000,  0.0000)
  32 Li     5.223052    3.280799   16.302074    ( 0.0000,  0.0000,  0.0000)
  33 Li    -0.102751    7.304297   16.194295    ( 0.0000,  0.0000,  0.0000)
  34 Li     3.280799    5.223052   16.302074    ( 0.0000,  0.0000,  0.0000)
  35 Li     6.495995    6.495995   15.559856    ( 0.0000,  0.0000,  0.0000)
  36 N      9.114940    9.114940   16.569046    ( 0.0000,  0.0000,  0.0000)
  37 N      3.370933    3.370933   16.149115    ( 0.0000,  0.0000,  0.0000)

Unit cell:
           periodic     x           y           z      points  spacing
  1. axis:    yes    9.702222    0.000000    0.000000    60     0.1617
  2. axis:    yes    0.000000    9.702222    0.000000    60     0.1617
  3. axis:    no     0.000000    0.000000   24.851111   156     0.1593

  Lengths:   9.702222   9.702222  24.851111
  Angles:   90.000000  90.000000  90.000000

Effective grid spacing dv^(1/3) = 0.1609

     iter     time        total  log10-change:
                         energy  eigst   dens
iter:   1 16:28:25  -227.220997  -0.74
iter:   2 16:28:42  -227.183138  -1.31  -1.58
iter:   3 16:28:59  -227.172240  -1.98  -1.83
iter:   4 16:29:16  -227.166460c -2.10  -2.10
Writing to output.gpw (mode='')

iter:   5 16:29:33  -227.164542c -1.53  -2.29
iter:   6 16:29:50  -227.163562c -2.50  -2.32
iter:   7 16:30:08  -227.162562c -2.18  -2.57
iter:   8 16:30:25  -227.162622c -2.86  -2.80
iter:   9 16:30:42  -227.162697c -3.07  -2.81
Writing to output.gpw (mode='')

iter:  10 16:31:00  -227.162662c -3.41  -2.79
iter:  11 16:31:17  -227.162651c -3.36  -2.87
iter:  12 16:31:34  -227.162673c -3.44  -3.00
iter:  13 16:31:51  -227.162650c -3.70  -3.06
iter:  14 16:32:08  -227.162769c -3.40  -3.20
Writing to output.gpw (mode='')

iter:  15 16:32:26  -227.162713c -4.22  -3.08
iter:  16 16:32:42  -227.162629c -3.93  -3.15
iter:  17 16:32:59  -227.162723c -3.91  -3.36
iter:  18 16:33:17  -227.162670c -4.69  -3.32
iter:  19 16:33:33  -227.162650c -4.49  -3.52
Writing to output.gpw (mode='')

iter:  20 16:33:51  -227.162652c -4.82  -3.63
iter:  21 16:34:08  -227.162658c -5.24  -3.68
iter:  22 16:34:25  -227.162656c -5.05  -3.72
iter:  23 16:34:42  -227.162649c -5.05  -3.87
iter:  24 16:34:59  -227.162655c -5.50  -3.96
Writing to output.gpw (mode='')

iter:  25 16:35:16  -227.162660c -5.42  -4.02c
iter:  26 16:35:33  -227.162659c -5.96  -4.17c
iter:  27 16:35:51  -227.162655c -5.67  -4.24c
iter:  28 16:36:08  -227.162659c -6.12  -4.28c
iter:  29 16:36:25  -227.162659c -6.13  -4.31c
Writing to output.gpw (mode='')

iter:  30 16:36:42  -227.162658c -6.39  -4.47c
iter:  31 16:36:59  -227.162656c -6.37  -4.52c
iter:  32 16:37:17  -227.162656c -6.55  -4.71c
iter:  33 16:37:34  -227.162657c -6.73  -4.80c
iter:  34 16:37:51  -227.162657c -6.65  -4.80c
Writing to output.gpw (mode='')

iter:  35 16:38:08  -227.162657c -6.89  -4.97c
iter:  36 16:38:26  -227.162657c -7.18  -4.99c
iter:  37 16:38:43  -227.162657c -7.15  -5.00c
iter:  38 16:39:00  -227.162658c -7.25  -5.19c
iter:  39 16:39:17  -227.162658c -7.63c -5.23c

Converged after 39 iterations.

Dipole moment: (0.648442, 0.648442, 0.018971) |e|*Ang

Energy contributions relative to reference atoms: (reference = -10263.804537)

Kinetic:        +78.084547
Potential:      -66.353684
External:        +0.000000
XC:            -239.131215
Entropy (-ST):   -0.154656
Local:           +0.315022
--------------------------
Free energy:   -227.239985
Extrapolated:  -227.162658

Dipole-layer corrected work functions: 3.433028, 3.396559 eV

Showing only first 2 kpts
 Kpt  Band  Eigenvalues  Occupancy
  0    21     -3.66983    1.98789
  0    22     -3.55109    1.87708
  0    23     -3.45502    1.38191
  0    24     -2.98957    0.00041

  1    21     -3.70467    1.99395
  1    22     -3.53564    1.83621
  1    23     -3.39756    0.82934
  1    24     -3.12144    0.00565


Fermi level: -3.41479

No gap
Writing to output.gpw (mode='')


Forces in eV/Ang:
  0 Li    0.02665    0.02665   -0.29837
  1 Li   -0.02054    0.02294   -0.23986
  2 Li    0.00184   -0.01353   -0.28351
  3 Li    0.02294   -0.02054   -0.23986
  4 Li   -0.01442   -0.01442   -0.27338
  5 Li   -0.00694    0.01931   -0.28732
  6 Li   -0.01353    0.00184   -0.28351
  7 Li    0.01931   -0.00694   -0.28732
  8 Li   -0.00479   -0.00479   -0.34042
  9 Li   -0.10323   -0.10323    0.25398
 10 Li    0.00639    0.05696    0.32954
 11 Li    0.07764   -0.07592    0.30427
 12 Li    0.05696    0.00639    0.32954
 13 Li    0.05381    0.05381   -1.43672
 14 Li   -0.10770    0.00602    0.35438
 15 Li   -0.07592    0.07764    0.30427
 16 Li    0.00602   -0.10770    0.35438
 17 Li    0.06411    0.06411    0.36376
 18 Li    0.13901    0.13901   -0.17176
 19 Li    0.10113   -0.07559    0.21050
 20 Li   -0.18502    0.11556   -0.04445
 21 Li   -0.07559    0.10113    0.21050
 22 Li    0.13311    0.13311    0.14181
 23 Li   -0.05442    0.04164    0.01309
 24 Li    0.11556   -0.18502   -0.04445
 25 Li    0.04164   -0.05442    0.01309
 26 Li   -0.09132   -0.09132    0.06628
 27 Li   -0.29250   -0.29250    1.58288
 28 Li    0.58763    0.51811   -0.61430
 29 Li    0.38264   -0.02799    0.15964
 30 Li    0.51811    0.58763   -0.61430
 31 Li    0.05875    0.05875    2.50880
 32 Li   -0.04860   -0.09060   -0.25501
 33 Li   -0.02799    0.38264    0.15964
 34 Li   -0.09060   -0.04860   -0.25501
 35 Li    0.08256    0.08256    0.09097
 36 N    -0.02376   -0.02376   -1.62028
 37 N    -1.26146   -1.26146   -0.11790

System changes: positions 

Initializing position-dependent things.

Density initialized from wave functions
       .-----------------------.  
      /|                       |  
     / |                       |  
    /  |                       |  
   /   |                       |  
  /    |                       |  
 *     |                       |  
 |     |                       |  
 |     |                       |  
 |     |                       |  
 |     |                       |  
 |     |                 Li  N |  
 |     |                     Li|  
 |     |    Li                 |  
 |    Li             Li        |  
 |     |  LN    LiLi      Li   |  
 |     | Li                    |  
 |     |Li      Li      Li     |  
 |     |   Li                  |  
 Li  LLi     LLi     LLi       |  
 |     |  Li      Li      Li   |  
 | Li  |   Li      Li          |  
 |     |Li      Li      Li     |  
 Li    | Li      Li            |  
 |    Li      Li      Li       |  
 |     |                       |  
 |     |                       |  
 |     |                       |  
 |     |                       |  
 |     |                       |  
 |     |                       |  
 |     .-----------------------.  
 |    /                       /   
 |   /                       /    
 |  /                       /     
 | /                       /      
 |/                       /       
 *-----------------------*        

Positions:
   0 Li     1.617037    1.617037   10.000000    ( 0.0000,  0.0000,  0.0000)
   1 Li     4.851111    1.617037   10.000000    ( 0.0000,  0.0000,  0.0000)
   2 Li     8.085185    1.617037   10.000000    ( 0.0000,  0.0000,  0.0000)
   3 Li     1.617037    4.851111   10.000000    ( 0.0000,  0.0000,  0.0000)
   4 Li     4.851111    4.851111   10.000000    ( 0.0000,  0.0000,  0.0000)
   5 Li     8.085185    4.851111   10.000000    ( 0.0000,  0.0000,  0.0000)
   6 Li     1.617037    8.085185   10.000000    ( 0.0000,  0.0000,  0.0000)
   7 Li     4.851111    8.085185   10.000000    ( 0.0000,  0.0000,  0.0000)
   8 Li     8.085185    8.085185   10.000000    ( 0.0000,  0.0000,  0.0000)
   9 Li     0.000000    0.000000   11.617037    ( 0.0000,  0.0000,  0.0000)
  10 Li     3.234074    0.000000   11.617037    ( 0.0000,  0.0000,  0.0000)
  11 Li     6.468148    0.000000   11.617037    ( 0.0000,  0.0000,  0.0000)
  12 Li     0.000000    3.234074   11.617037    ( 0.0000,  0.0000,  0.0000)
  13 Li     3.234074    3.234074   11.617037    ( 0.0000,  0.0000,  0.0000)
  14 Li     6.468148    3.234074   11.617037    ( 0.0000,  0.0000,  0.0000)
  15 Li     0.000000    6.468148   11.617037    ( 0.0000,  0.0000,  0.0000)
  16 Li     3.234074    6.468148   11.617037    ( 0.0000,  0.0000,  0.0000)
  17 Li     6.468148    6.468148   11.617037    ( 0.0000,  0.0000,  0.0000)
  18 Li     1.481907    1.481907   13.319503    ( 0.0000,  0.0000,  0.0000)
  19 Li     5.010034    1.395403   13.563711    ( 0.0000,  0.0000,  0.0000)
  20 Li     8.062732    1.734275   13.649007    ( 0.0000,  0.0000,  0.0000)
  21 Li     1.395403    5.010034   13.563711    ( 0.0000,  0.0000,  0.0000)
  22 Li     5.007918    5.007918   13.528469    ( 0.0000,  0.0000,  0.0000)
  23 Li     8.134675    4.771660   13.740250    ( 0.0000,  0.0000,  0.0000)
  24 Li     1.734275    8.062732   13.649007    ( 0.0000,  0.0000,  0.0000)
  25 Li     4.771660    8.134675   13.740250    ( 0.0000,  0.0000,  0.0000)
  26 Li     8.071598    8.071598   13.598715    ( 0.0000,  0.0000,  0.0000)
  27 Li     0.044230    0.044230   14.664706    ( 0.0000,  0.0000,  0.0000)
  28 Li     2.907490    1.169644   16.629201    ( 0.0000,  0.0000,  0.0000)
  29 Li     7.328591   -0.105631   16.204533    ( 0.0000,  0.0000,  0.0000)
  30 Li     1.169644    2.907490   16.629201    ( 0.0000,  0.0000,  0.0000)
  31 Li     3.224755    3.224755   13.604343    ( 0.0000,  0.0000,  0.0000)
  32 Li     5.211836    3.279325   16.299605    ( 0.0000,  0.0000,  0.0000)
  33 Li    -0.105631    7.328591   16.204533    ( 0.0000,  0.0000,  0.0000)
  34 Li     3.279325    5.211836   16.299605    ( 0.0000,  0.0000,  0.0000)
  35 Li     6.497888    6.497888   15.561495    ( 0.0000,  0.0000,  0.0000)
  36 N      9.101035    9.101035   16.570190    ( 0.0000,  0.0000,  0.0000)
  37 N      3.343280    3.343280   16.157520    ( 0.0000,  0.0000,  0.0000)

Unit cell:
           periodic     x           y           z      points  spacing
  1. axis:    yes    9.702222    0.000000    0.000000    60     0.1617
  2. axis:    yes    0.000000    9.702222    0.000000    60     0.1617
  3. axis:    no     0.000000    0.000000   24.851111   156     0.1593

  Lengths:   9.702222   9.702222  24.851111
  Angles:   90.000000  90.000000  90.000000

Effective grid spacing dv^(1/3) = 0.1609

     iter     time        total  log10-change:
                         energy  eigst   dens
iter:   1 16:39:39  -227.356423  -0.79
iter:   2 16:39:56  -227.309945  -1.35  -1.55
iter:   3 16:40:13  -227.298709  -2.06  -1.85
iter:   4 16:40:30  -227.291615c -1.80  -2.12
Writing to output.gpw (mode='')

iter:   5 16:40:47  -227.291572c -1.72  -2.37
iter:   6 16:41:04  -227.291675c -2.32  -2.37
iter:   7 16:41:21  -227.289846c -2.25  -2.48
iter:   8 16:41:38  -227.289887c -2.92  -2.80
iter:   9 16:41:56  -227.289946c -3.30  -2.85
Writing to output.gpw (mode='')

iter:  10 16:42:13  -227.289990c -3.43  -2.89
iter:  11 16:42:30  -227.290008c -3.26  -3.02
iter:  12 16:42:47  -227.290109c -3.34  -3.21
iter:  13 16:43:04  -227.290028c -4.06  -3.17
iter:  14 16:43:22  -227.290006c -4.22  -3.32
Writing to output.gpw (mode='')

iter:  15 16:43:39  -227.290028c -4.22  -3.40
iter:  16 16:43:56  -227.289986c -4.42  -3.37
iter:  17 16:44:13  -227.289974c -4.23  -3.55
iter:  18 16:44:30  -227.289997c -4.83  -3.70
iter:  19 16:44:47  -227.289997c -5.13  -3.78
Writing to output.gpw (mode='')

iter:  20 16:45:04  -227.289982c -4.88  -3.79
iter:  21 16:45:22  -227.289983c -5.14  -3.95
iter:  22 16:45:39  -227.289993c -5.39  -4.02c
iter:  23 16:45:56  -227.289996c -5.51  -4.13c
iter:  24 16:46:13  -227.289994c -5.64  -4.22c
Writing to output.gpw (mode='')

iter:  25 16:46:30  -227.289997c -5.92  -4.32c
iter:  26 16:46:47  -227.289999c -5.85  -4.36c
iter:  27 16:47:04  -227.289996c -6.20  -4.38c
iter:  28 16:47:22  -227.289995c -6.16  -4.41c
iter:  29 16:47:39  -227.289994c -6.33  -4.43c
Writing to output.gpw (mode='')

iter:  30 16:47:56  -227.289993c -6.45  -4.53c
iter:  31 16:48:13  -227.289994c -6.62  -4.66c
iter:  32 16:48:30  -227.289994c -6.61  -4.87c
iter:  33 16:48:47  -227.289994c -6.71  -4.89c
iter:  34 16:49:05  -227.289995c -6.95  -4.85c
Writing to output.gpw (mode='')

iter:  35 16:49:22  -227.289995c -6.99  -4.95c
iter:  36 16:49:39  -227.289995c -7.18  -5.06c
iter:  37 16:49:56  -227.289995c -7.22  -5.08c
iter:  38 16:50:13  -227.289995c -7.31  -5.00c
iter:  39 16:50:30  -227.289995c -7.24  -5.29c
Writing to output.gpw (mode='')

iter:  40 16:50:48  -227.289995c -7.53c -5.30c

Converged after 40 iterations.

Dipole moment: (0.476998, 0.476998, 0.016247) |e|*Ang

Energy contributions relative to reference atoms: (reference = -10263.804537)

Kinetic:        +78.903611
Potential:      -66.974168
External:        +0.000000
XC:            -239.457764
Entropy (-ST):   -0.153993
Local:           +0.315324
--------------------------
Free energy:   -227.366992
Extrapolated:  -227.289995

Dipole-layer corrected work functions: 3.430972, 3.399739 eV

Showing only first 2 kpts
 Kpt  Band  Eigenvalues  Occupancy
  0    21     -3.67009    1.98782
[...]
Writing to output.gpw (mode='')

iter:   5 01:18:38  -231.839472c -4.25  -3.29
iter:   6 01:18:55  -231.839464c -4.32  -3.32
iter:   7 01:19:12  -231.839455c -4.02  -3.46
iter:   8 01:19:29  -231.839457c -4.62  -3.63
iter:   9 01:19:46  -231.839455c -4.81  -3.85
Writing to output.gpw (mode='')

iter:  10 01:20:04  -231.839459c -5.07  -3.95
iter:  11 01:20:21  -231.839461c -5.27  -4.01c
iter:  12 01:20:38  -231.839461c -5.49  -4.15c
iter:  13 01:20:55  -231.839460c -5.66  -4.22c
iter:  14 01:21:12  -231.839461c -5.91  -4.27c
Writing to output.gpw (mode='')

iter:  15 01:21:29  -231.839460c -5.89  -4.32c
iter:  16 01:21:46  -231.839459c -6.16  -4.68c
iter:  17 01:22:03  -231.839460c -6.36  -4.68c
iter:  18 01:22:20  -231.839460c -6.27  -4.72c
iter:  19 01:22:37  -231.839460c -6.41  -4.80c
Writing to output.gpw (mode='')

iter:  20 01:22:54  -231.839460c -6.63  -4.87c
iter:  21 01:23:11  -231.839460c -6.72  -4.89c
iter:  22 01:23:28  -231.839461c -6.87  -4.91c
iter:  23 01:23:45  -231.839461c -7.06  -5.10c
iter:  24 01:24:02  -231.839461c -7.25  -5.20c
Writing to output.gpw (mode='')

iter:  25 01:24:19  -231.839461c -7.35  -5.32c
iter:  26 01:24:36  -231.839461c -7.40  -5.35c
iter:  27 01:24:53  -231.839461c -7.35  -5.37c
iter:  28 01:25:10  -231.839461c -7.73c -5.42c

Converged after 28 iterations.

Dipole moment: (1.363980, 1.363980, 0.177689) |e|*Ang

Energy contributions relative to reference atoms: (reference = -10263.804537)

Kinetic:        +89.259143
Potential:      -76.158152
External:        +0.000000
XC:            -245.182411
Entropy (-ST):   -0.182668
Local:           +0.333294
--------------------------
Free energy:   -231.930795
Extrapolated:  -231.839461

Dipole-layer corrected work functions: 3.459719, 3.118141 eV

Showing only first 2 kpts
 Kpt  Band  Eigenvalues  Occupancy
  0    21     -3.48410    1.96045
  0    22     -3.39878    1.79996
  0    23     -3.31943    1.29591
  0    24     -2.97204    0.00353

  1    21     -3.50222    1.97231
  1    22     -3.41001    1.83691
  1    23     -3.32352    1.33273
  1    24     -3.05960    0.02017


Fermi level: -3.28893

No gap
Writing to output.gpw (mode='')


Forces in eV/Ang:
  0 Li    0.00058    0.00058   -0.32343
  1 Li   -0.00288    0.01208   -0.29645
  2 Li    0.00436   -0.00477   -0.29526
  3 Li    0.01208   -0.00288   -0.29645
  4 Li   -0.01590   -0.01590   -0.31646
  5 Li    0.01053    0.01197   -0.29603
  6 Li   -0.00477    0.00436   -0.29526
  7 Li    0.01197    0.01053   -0.29603
  8 Li   -0.00695   -0.00695   -0.33176
  9 Li   -0.13191   -0.13191    0.20483
 10 Li    0.00491    0.06841    0.44458
 11 Li    0.12367   -0.03218    0.31288
 12 Li    0.06841    0.00491    0.44458
 13 Li   -0.04390   -0.04390   -0.10760
 14 Li   -0.02131    0.01440    0.39900
 15 Li   -0.03218    0.12367    0.31288
 16 Li    0.01440   -0.02131    0.39900
 17 Li   -0.01857   -0.01857    0.46438
 18 Li   -0.00280   -0.00280   -0.02451
 19 Li    0.01444    0.00556   -0.00333
 20 Li   -0.00350   -0.01338   -0.02381
 21 Li    0.00556    0.01444   -0.00333
 22 Li    0.01230    0.01230   -0.01352
 23 Li    0.00631    0.00414   -0.00157
 24 Li   -0.01338   -0.00350   -0.02381
 25 Li    0.00414    0.00631   -0.00157
 26 Li    0.00511    0.00511   -0.01806
 27 Li   -0.00117   -0.00117    0.01652
 28 Li   -0.00243   -0.00430   -0.02032
 29 Li    0.02689   -0.00472   -0.01675
 30 Li   -0.00430   -0.00243   -0.02032
 31 Li   -0.00874   -0.00874    0.00515
 32 Li   -0.03072   -0.00133    0.01522
 33 Li   -0.00472    0.02689   -0.01675
 34 Li   -0.00133   -0.03072    0.01522
 35 Li    0.00210    0.00210    0.01577
 36 N     0.00701    0.00701   -0.04146
 37 N     0.01434    0.01434    0.05011

System changes: positions 

Initializing position-dependent things.

Density initialized from wave functions
       .-----------------------.  
      /|                       |  
     / |                       |  
    /  |                       |  
   /   |                       |  
  /    |                       |  
 *     |                       |  
 |     |                       |  
 |     |                       |  
 |     |                       |  
 |     |                       |  
 |     |                Li    Li  
 |     |                  N    |  
 |     |              Li     Li|  
 |     |Li   Li                |  
 |     |   LiN   Lii      Li   |  
 |     |    Li                 |  
 |     |Li      Li      Li     |  
 |     |  Li                   |  
 |   Li|     LLi     LLi       |  
 |     |  Li      Li      Li   |  
 | Li  |   Li      Li          |  
 |     |Li      Li      Li     |  
 Li    | Li      Li            |  
 |    Li      Li      Li       |  
 |     |                       |  
 |     |                       |  
 |     |                       |  
 |     |                       |  
 |     |                       |  
 |     |                       |  
 |     .-----------------------.  
 |    /                       /   
 |   /                       /    
 |  /                       /     
 | /                       /      
 |/                       /       
 *-----------------------*        

Positions:
   0 Li     1.617037    1.617037   10.000000    ( 0.0000,  0.0000,  0.0000)
   1 Li     4.851111    1.617037   10.000000    ( 0.0000,  0.0000,  0.0000)
   2 Li     8.085185    1.617037   10.000000    ( 0.0000,  0.0000,  0.0000)
   3 Li     1.617037    4.851111   10.000000    ( 0.0000,  0.0000,  0.0000)
   4 Li     4.851111    4.851111   10.000000    ( 0.0000,  0.0000,  0.0000)
   5 Li     8.085185    4.851111   10.000000    ( 0.0000,  0.0000,  0.0000)
   6 Li     1.617037    8.085185   10.000000    ( 0.0000,  0.0000,  0.0000)
   7 Li     4.851111    8.085185   10.000000    ( 0.0000,  0.0000,  0.0000)
   8 Li     8.085185    8.085185   10.000000    ( 0.0000,  0.0000,  0.0000)
   9 Li     0.000000    0.000000   11.617037    ( 0.0000,  0.0000,  0.0000)
  10 Li     3.234074    0.000000   11.617037    ( 0.0000,  0.0000,  0.0000)
  11 Li     6.468148    0.000000   11.617037    ( 0.0000,  0.0000,  0.0000)
  12 Li     0.000000    3.234074   11.617037    ( 0.0000,  0.0000,  0.0000)
  13 Li     3.234074    3.234074   11.617037    ( 0.0000,  0.0000,  0.0000)
  14 Li     6.468148    3.234074   11.617037    ( 0.0000,  0.0000,  0.0000)
  15 Li     0.000000    6.468148   11.617037    ( 0.0000,  0.0000,  0.0000)
  16 Li     3.234074    6.468148   11.617037    ( 0.0000,  0.0000,  0.0000)
  17 Li     6.468148    6.468148   11.617037    ( 0.0000,  0.0000,  0.0000)
  18 Li     1.247663    1.247663   13.612469    ( 0.0000,  0.0000,  0.0000)
  19 Li     5.089273    1.418073   13.624270    ( 0.0000,  0.0000,  0.0000)
  20 Li     8.046146    1.861061   13.893637    ( 0.0000,  0.0000,  0.0000)
  21 Li     1.418073    5.089273   13.624270    ( 0.0000,  0.0000,  0.0000)
  22 Li     4.776326    4.776326   13.747078    ( 0.0000,  0.0000,  0.0000)
  23 Li     8.029940    4.851614   13.723113    ( 0.0000,  0.0000,  0.0000)
  24 Li     1.861061    8.046146   13.893637    ( 0.0000,  0.0000,  0.0000)
  25 Li     4.851614    8.029940   13.723113    ( 0.0000,  0.0000,  0.0000)
  26 Li     8.237998    8.237998   13.856161    ( 0.0000,  0.0000,  0.0000)
  27 Li    -0.232982   -0.232982   15.987885    ( 0.0000,  0.0000,  0.0000)
  28 Li     3.783073    1.851976   16.246617    ( 0.0000,  0.0000,  0.0000)
  29 Li     6.774520   -0.244430   15.928025    ( 0.0000,  0.0000,  0.0000)
  30 Li     1.851976    3.783073   16.246617    ( 0.0000,  0.0000,  0.0000)
  31 Li     2.999635    2.999635   14.121852    ( 0.0000,  0.0000,  0.0000)
  32 Li     5.647813    3.595721   15.815559    ( 0.0000,  0.0000,  0.0000)
  33 Li    -0.244430    6.774520   15.928025    ( 0.0000,  0.0000,  0.0000)
  34 Li     3.595721    5.647813   15.815559    ( 0.0000,  0.0000,  0.0000)
  35 Li     6.806467    6.806467   15.741636    ( 0.0000,  0.0000,  0.0000)
  36 N      8.143236    8.143236   15.760477    ( 0.0000,  0.0000,  0.0000)
  37 N      3.720278    3.720278   15.672066    ( 0.0000,  0.0000,  0.0000)

Unit cell:
           periodic     x           y           z      points  spacing
  1. axis:    yes    9.702222    0.000000    0.000000    60     0.1617
  2. axis:    yes    0.000000    9.702222    0.000000    60     0.1617
  3. axis:    no     0.000000    0.000000   24.851111   156     0.1593

  Lengths:   9.702222   9.702222  24.851111
  Angles:   90.000000  90.000000  90.000000

Effective grid spacing dv^(1/3) = 0.1609

     iter     time        total  log10-change:
                         energy  eigst   dens
iter:   1 01:25:32  -231.841918  -1.96
iter:   2 01:25:49  -231.840279  -2.71  -2.35
iter:   3 01:26:06  -231.840199c -3.28  -2.63
iter:   4 01:26:23  -231.839878c -3.22  -2.74
Writing to output.gpw (mode='')

iter:   5 01:26:41  -231.839937c -4.01  -3.13
iter:   6 01:26:58  -231.839932c -4.12  -3.09
iter:   7 01:27:15  -231.839922c -3.45  -3.19
iter:   8 01:27:32  -231.839910c -4.46  -3.42
iter:   9 01:27:49  -231.839920c -4.32  -3.65
Writing to output.gpw (mode='')

iter:  10 01:28:06  -231.839918c -4.82  -3.74
iter:  11 01:28:24  -231.839922c -5.01  -3.81
iter:  12 01:28:41  -231.839921c -5.20  -3.81
iter:  13 01:28:58  -231.839920c -5.33  -3.87
iter:  14 01:29:15  -231.839922c -5.35  -4.01c
Writing to output.gpw (mode='')

iter:  15 01:29:32  -231.839921c -5.71  -4.30c
iter:  16 01:29:50  -231.839920c -5.77  -4.31c
iter:  17 01:30:07  -231.839922c -5.85  -4.45c
iter:  18 01:30:24  -231.839922c -6.16  -4.56c
iter:  19 01:30:41  -231.839922c -6.29  -4.62c
Writing to output.gpw (mode='')

iter:  20 01:30:58  -231.839922c -6.05  -4.61c
iter:  21 01:31:15  -231.839922c -6.41  -4.52c
iter:  22 01:31:33  -231.839922c -6.68  -4.55c
iter:  23 01:31:50  -231.839923c -6.69  -4.53c
iter:  24 01:32:07  -231.839922c -6.84  -4.54c
Writing to output.gpw (mode='')

iter:  25 01:32:24  -231.839923c -6.88  -4.48c
iter:  26 01:32:41  -231.839923c -6.88  -4.57c
iter:  27 01:32:58  -231.839923c -6.93  -4.62c
iter:  28 01:33:15  -231.839924c -7.29  -4.77c
iter:  29 01:33:33  -231.839923c -7.25  -4.83c
Writing to output.gpw (mode='')

iter:  30 01:33:50  -231.839923c -7.33  -5.02c
iter:  31 01:34:07  -231.839923c -7.59c -5.10c

Converged after 31 iterations.

Dipole moment: (1.335399, 1.335399, 0.178500) |e|*Ang

Energy contributions relative to reference atoms: (reference = -10263.804537)

Kinetic:        +89.250805
Potential:      -76.151425
External:        +0.000000
XC:            -245.181561
Entropy (-ST):   -0.182782
Local:           +0.333649
--------------------------
Free energy:   -231.931314
Extrapolated:  -231.839923

Dipole-layer corrected work functions: 3.460140, 3.117001 eV

Showing only first 2 kpts
 Kpt  Band  Eigenvalues  Occupancy
  0    21     -3.48365    1.96038
  0    22     -3.39778    1.79765
  0    23     -3.31926    1.29763
  0    24     -2.97258    0.00359

  1    21     -3.50163    1.97218
  1    22     -3.40940    1.83617
  1    23     -3.32233    1.32537
  1    24     -3.05904    0.02009


Fermi level: -3.28857

No gap
Writing to output.gpw (mode='')


Forces in eV/Ang:
  0 Li    0.00039    0.00039   -0.32281
  1 Li   -0.00282    0.01223   -0.29623
  2 Li    0.00428   -0.00496   -0.29488
  3 Li    0.01223   -0.00282   -0.29623
  4 Li   -0.01594   -0.01594   -0.31608
  5 Li    0.01026    0.01194   -0.29647
  6 Li   -0.00496    0.00428   -0.29488
  7 Li    0.01194    0.01026   -0.29647
  8 Li   -0.00687   -0.00687   -0.33205
  9 Li   -0.13156   -0.13156    0.20285
 10 Li    0.00661    0.06856    0.44429
 11 Li    0.12353   -0.03350    0.31291
 12 Li    0.06856    0.00661    0.44429
 13 Li   -0.04380   -0.04380   -0.11403
 14 Li   -0.02011    0.01550    0.39839
 15 Li   -0.03350    0.12353    0.31291
 16 Li    0.01550   -0.02011    0.39839
 17 Li   -0.01814   -0.01814    0.46550
 18 Li   -0.00597   -0.00597   -0.02306
 19 Li    0.01297    0.00638   -0.00299
 20 Li   -0.00540   -0.01422   -0.02033
 21 Li    0.00638    0.01297   -0.00299
 22 Li    0.01352    0.01352   -0.00945
 23 Li    0.00717    0.00412   -0.00566
 24 Li   -0.01422   -0.00540   -0.02033
 25 Li    0.00412    0.00717   -0.00566
 26 Li    0.00572    0.00572   -0.01988
 27 Li    0.00044    0.00044    0.00822
 28 Li   -0.00327   -0.00220   -0.01952
 29 Li    0.03042   -0.00399   -0.01877
 30 Li   -0.00220   -0.00327   -0.01952
 31 Li   -0.00718   -0.00718    0.00862
 32 Li   -0.03114   -0.00247    0.01605
 33 Li   -0.00399    0.03042   -0.01877
 34 Li   -0.00247   -0.03114    0.01605
 35 Li    0.00455    0.00455    0.01146
 36 N    -0.01047   -0.01047   -0.03504
 37 N     0.00935    0.00935    0.04411

Timing:                                      incl.     excl.
-------------------------------------------------------------------
Density initialized from wave functions:    37.549    18.496   0.0% |
 Symmetrize density:                        19.054    19.054   0.0% |
Forces:                                    215.392   215.392   0.2% |
Hamiltonian:                              2477.249     0.025   0.0% |
 Atomic:                                    11.336     0.106   0.0% |
  XC Correction:                            11.230    11.230   0.0% |
 Calculate atomic Hamiltonians:              2.742     2.742   0.0% |
 Communicate:                               17.138    17.138   0.0% |
 Hartree integrate/restrict:                 3.564     3.564   0.0% |
 Poisson:                                   60.632    23.196   0.0% |
  Communicate from 1D:                       7.487     7.487   0.0% |
  Communicate from 2D:                       7.319     7.319   0.0% |
  Communicate to 1D:                         4.796     4.796   0.0% |
  Communicate to 2D:                         7.748     7.748   0.0% |
  FFT 1D:                                    4.847     4.847   0.0% |
  FFT 2D:                                    5.239     5.239   0.0% |
 XC 3D grid:                              2381.400   225.067   0.2% |
  VdW-DF integral:                        2156.333    14.468   0.0% |
   Convolution:                            189.803   189.803   0.1% |
   FFT:                                     69.600    69.600   0.1% |
   gather:                                1192.852  1192.852   0.9% |
   hmm1:                                    56.204    56.204   0.0% |
   hmm2:                                    64.824    64.824   0.1% |
   iFFT:                                    69.393    69.393   0.1% |
   potential:                              491.599     6.672   0.0% |
    collect:                                92.750    92.750   0.1% |
    p1:                                    205.544   205.544   0.2% |
    p2:                                     98.063    98.063   0.1% |
    sum:                                    88.570    88.570   0.1% |
   splines:                                  7.590     7.590   0.0% |
 vbar:                                       0.413     0.413   0.0% |
LCAO initialization:                         2.549     0.081   0.0% |
 LCAO eigensolver:                           0.480     0.002   0.0% |
  Calculate projections:                     0.000     0.000   0.0% |
  DenseAtomicCorrection:                     0.000     0.000   0.0% |
  Distribute overlap matrix:                 0.415     0.415   0.0% |
  Orbital Layouts:                           0.059     0.059   0.0% |
  Potential matrix:                          0.000     0.000   0.0% |
  Sum over cells:                            0.002     0.002   0.0% |
 LCAO to grid:                               1.424     1.424   0.0% |
 Set positions (LCAO WFS):                   0.563     0.467   0.0% |
  Basic WFS set positions:                   0.004     0.004   0.0% |
  Basis functions set positions:             0.000     0.000   0.0% |
  P tci:                                     0.001     0.001   0.0% |
  ST tci:                                    0.036     0.036   0.0% |
  mktci:                                     0.055     0.055   0.0% |
Redistribute:                                0.152     0.152   0.0% |
SCF-cycle:                               125994.819  4345.150   3.4% ||
 Davidson:                               39373.862 18832.801  14.6% |-----|
  Apply hamiltonian:                      2694.756  2694.756   2.1% ||
  Subspace diag:                          4742.684     3.125   0.0% |
   calc_h_matrix:                         3006.369   380.158   0.3% |
    Apply hamiltonian:                    2626.210  2626.210   2.0% ||
   diagonalize:                            194.845   194.845   0.2% |
   rotate_psi:                            1538.345  1538.345   1.2% |
  calc. matrices:                        10036.311  3417.564   2.6% ||
   Apply hamiltonian:                     6618.748  6618.748   5.1% |-|
  diagonalize:                              56.340    56.340   0.0% |
  rotate_psi:                             3010.970  3010.970   2.3% ||
 Density:                                 1008.328     0.161   0.0% |
  Atomic density matrices:                  51.382    51.382   0.0% |
  Mix:                                     180.758   180.758   0.1% |
  Multipole moments:                         6.741     6.741   0.0% |
  Pseudo density:                          769.286   125.694   0.1% |
   Symmetrize density:                     643.592   643.592   0.5% |
 Hamiltonian:                            81214.300     0.918   0.0% |
  Atomic:                                  416.397     4.101   0.0% |
   XC Correction:                          412.296   412.296   0.3% |
  Calculate atomic Hamiltonians:           101.524   101.524   0.1% |
  Communicate:                             702.931   702.931   0.5% |
  Hartree integrate/restrict:              141.193   141.193   0.1% |
  Poisson:                                2179.967   839.984   0.7% |
   Communicate from 1D:                    248.006   248.006   0.2% |
   Communicate from 2D:                    272.270   272.270   0.2% |
   Communicate to 1D:                      179.678   179.678   0.1% |
   Communicate to 2D:                      270.330   270.330   0.2% |
   FFT 1D:                                 178.601   178.601   0.1% |
   FFT 2D:                                 191.097   191.097   0.1% |
  XC 3D grid:                            77656.432  6816.610   5.3% |-|
   VdW-DF integral:                      70839.822   530.662   0.4% |
    Convolution:                          6992.118  6992.118   5.4% |-|
    FFT:                                  2552.341  2552.341   2.0% ||
    gather:                              35765.548 35765.548  27.7% |----------|
    hmm1:                                 2048.277  2048.277   1.6% ||
    hmm2:                                 2391.956  2391.956   1.9% ||
    iFFT:                                 2549.145  2549.145   2.0% ||
    potential:                           18009.693   245.636   0.2% |
     collect:                             3048.276  3048.276   2.4% ||
     p1:                                  7524.479  7524.479   5.8% |-|
     p2:                                  3614.763  3614.763   2.8% ||
     sum:                                 3576.539  3576.539   2.8% ||
    splines:                                 0.082     0.082   0.0% |
  vbar:                                     14.938    14.938   0.0% |
 Orthonormalize:                            53.178     0.086   0.0% |
  calc_s_matrix:                             5.606     5.606   0.0% |
  inverse-cholesky:                         25.440    25.440   0.0% |
  projections:                               0.023     0.023   0.0% |
  rotate_psi_s:                             22.024    22.024   0.0% |
Set symmetry:                                0.004     0.004   0.0% |
Other:                                     421.818   421.818   0.3% |
-------------------------------------------------------------------
Total:                                             129149.533 100.0%

Memory usage: 1.06 GiB
Date: Sun Jan 15 01:34:09 2023
