
  ___ ___ ___ _ _ _  
 |   |   |_  | | | | 
 | | | | | . | | | | 
 |__ |  _|___|_____|  22.8.0
 |___|_|             

User:   vazumah@d023
Date:   Sat Jan 28 20:19:43 2023
Arch:   x86_64
Pid:    9174
CWD:    /home/vazumah/Python_Projects/Li_NRR/Li_adsorb_studies/autocat/multi_adsorbates/3N/adsorbates/N/bridge/0.0_1.617
Python: 3.10.6
gpaw:   /home/vazumah/anaconda3/envs/NAME/lib/python3.10/site-packages/gpaw
_gpaw:  /home/vazumah/anaconda3/envs/NAME/lib/python3.10/site-packages/
        _gpaw.cpython-310-x86_64-linux-gnu.so
ase:    /home/vazumah/anaconda3/envs/NAME/lib/python3.10/site-packages/ase (version 3.22.1)
numpy:  /home/vazumah/anaconda3/envs/NAME/lib/python3.10/site-packages/numpy (version 1.23.3)
scipy:  /home/vazumah/anaconda3/envs/NAME/lib/python3.10/site-packages/scipy (version 1.9.1)
libxc:  5.2.3
units:  Angstrom and eV
cores: 32
OpenMP: True
OMP_NUM_THREADS: 1

Input parameters:
  h: 0.16
  kpts: {size: [4, 4, 1]}
  occupations: {name: fermi-dirac,
                width: 0.05}
  poissonsolver: {dipolelayer: xy}
  xc: BEEF-vdW

System changes: positions, numbers, cell, pbc, initial_charges, initial_magmoms 

Initialize ...

species:
  Li:
    name: Lithium
    id: 830b4218f175192f93f959cfc0aad614
    Z: 3.0
    valence: 1
    core: 2
    charge: 0.0
    file: /home/vazumah/anaconda3/envs/NAME/share/gpaw/Li.PBE.gz
    compensation charges: {type: gauss,
                           rc: 0.33,
                           lmax: 2}
    cutoffs: {filter: 1.91,
              core: 2.55}
    valence states:
      #              energy  rcut
      - 2s(1.00)    -2.874   1.058
      - 2p(0.00)    -1.090   1.058
      -  s          24.337   1.058
  
    # Using partial waves for Li as LCAO basis

  N:
    name: Nitrogen
    id: f7500608b86eaa90eef8b1d9a670dc53
    Z: 7.0
    valence: 5
    core: 2
    charge: 0.0
    file: /home/vazumah/anaconda3/envs/NAME/share/gpaw/N.PBE.gz
    compensation charges: {type: gauss,
                           rc: 0.18,
                           lmax: 2}
    cutoffs: {filter: 1.11,
              core: 0.96}
    valence states:
      #              energy  rcut
      - 2s(2.00)   -18.583   0.603
      - 2p(3.00)    -7.089   0.529
      -  s           8.629   0.603
      -  p          20.123   0.529
      -  d           0.000   0.577
  
    # Using partial waves for N as LCAO basis

Reference energy: -11745.526041  # eV

Spin-paired calculation

Convergence criteria:
 Maximum [total energy] change in last 3 cyles: 0.0005 eV / electron
 Maximum integral of absolute [dens]ity change: 0.0001 electrons / valence electron
 Maximum integral of absolute [eigenst]ate change: 4e-08 eV^2 / valence electron
 Maximum number of scf [iter]ations: 333
 (Square brackets indicate name in SCF output, whereas a 'c' in
 the SCF output indicates the quantity has converged.)

Symmetries present (total): 1

  ( 1  0  0)
  ( 0  1  0)
  ( 0  0  1)

16 k-points: 4 x 4 x 1 Monkhorst-Pack grid
8 k-points in the irreducible part of the Brillouin zone
       k-points in crystal coordinates                weights
   0:     0.12500000   -0.37500000    0.00000000          2/16
   1:     0.12500000   -0.12500000    0.00000000          2/16
   2:     0.12500000    0.12500000    0.00000000          2/16
   3:     0.12500000    0.37500000    0.00000000          2/16
   4:     0.37500000   -0.37500000    0.00000000          2/16
   5:     0.37500000   -0.12500000    0.00000000          2/16
   6:     0.37500000    0.12500000    0.00000000          2/16
   7:     0.37500000    0.37500000    0.00000000          2/16

Wave functions: Uniform real-space grid
  Kinetic energy operator: 6*3+1=19 point O(h^6) finite-difference Laplacian
  ScaLapack parameters: grid=1x1, blocksize=None
  Wavefunction extrapolation:
    Improved wavefunction reuse through dual PAW basis 

Occupation numbers: Fermi-Dirac:
  width: 0.0500  # eV
 

Eigensolver
   Davidson(niter=2) 

Densities:
  Coarse grid: 60*60*156 grid
  Fine grid: 120*120*312 grid
  Total Charge: 0.000000 

Density mixing:
  Method: separate
  Backend: pulay
  Linear mixing parameter: 0.05
  old densities: 5
  Damping of long wavelength oscillations: 50 

Hamiltonian:
  XC and Coulomb potentials evaluated on a 120*120*312 grid
  Using the BEEF-vdW Exchange-Correlation functional
  Interpolation: tri-quintic (5. degree polynomial)
  Poisson solver: FastPoissonSolver using
    Stencil: 6*3+1=19 point O(h^6) finite-difference Laplacian
    FFT axes: [0, 1]
    FST axes: [2]

Dipole correction along z-axis 

XC parameters: BEEF-vdW with 2 nearest neighbor stencil

Memory estimate:
  Process memory now: 211.34 MiB
  Calculator: 268.04 MiB
    Density: 86.93 MiB
      Arrays: 27.47 MiB
      Localized functions: 49.03 MiB
      Mixer: 10.44 MiB
    Hamiltonian: 21.84 MiB
      Arrays: 17.96 MiB
      XC: 0.00 MiB
      Poisson: 0.00 MiB
      vbar: 3.88 MiB
    Wavefunctions: 159.26 MiB
      Arrays psit_nG: 73.06 MiB
      Eigensolver: 83.68 MiB
      Projections: 0.03 MiB
      Projectors: 2.49 MiB

Total number of cores used: 32
Parallelization over k-points: 8
Domain decomposition: 1 x 1 x 4

Number of atoms: 39
Number of atomic orbitals: 156
Number of bands in calculation: 35
Number of valence electrons: 51
Bands to converge: occupied

... initialized

Initializing position-dependent things.

Density initialized from atomic densities
Creating initial wave functions:
  35 bands from LCAO basis set

       .-----------------------.  
      /|                       |  
     / |                       |  
    /  |                       |  
   /   |                       |  
  /    |                       |  
 *     |                       |  
 |     |                       |  
 |     |                       |  
 |     |                       |  
 |     |                       |  
 |     |                       |  
 |     |                       |  
 |     |      Li      Li       |  
 |    Li                       |  
 |     | LiLi      Li     Li   |  
 |    N| Li   Li   Li     Li   |  
 | Li  |Li              Li     |  
 |     |         Li            |  
 |   LLi     LiLi    Li        |  
 |     |  Li     NLi      Li   |  
 | Li  |   Li      Li          |  
 |     |Li      Li      Li     |  
 Li    | Li      Li            |  
 |    Li      Li      Li       |  
 |     |                       |  
 |     |                       |  
 |     |                       |  
 |     |                       |  
 |     |                       |  
 |     |                       |  
 |     .-----------------------.  
 |    /                       /   
 |   /                       /    
 |  /                       /     
 | /                       /      
 |/                       /       
 *-----------------------*        

Positions:
   0 Li     1.617037    1.617037   10.000000    ( 0.0000,  0.0000,  0.0000)
   1 Li     4.851111    1.617037   10.000000    ( 0.0000,  0.0000,  0.0000)
   2 Li     8.085185    1.617037   10.000000    ( 0.0000,  0.0000,  0.0000)
   3 Li     1.617037    4.851111   10.000000    ( 0.0000,  0.0000,  0.0000)
   4 Li     4.851111    4.851111   10.000000    ( 0.0000,  0.0000,  0.0000)
   5 Li     8.085185    4.851111   10.000000    ( 0.0000,  0.0000,  0.0000)
   6 Li     1.617037    8.085185   10.000000    ( 0.0000,  0.0000,  0.0000)
   7 Li     4.851111    8.085185   10.000000    ( 0.0000,  0.0000,  0.0000)
   8 Li     8.085185    8.085185   10.000000    ( 0.0000,  0.0000,  0.0000)
   9 Li     0.000000    0.000000   11.617037    ( 0.0000,  0.0000,  0.0000)
  10 Li     3.234074    0.000000   11.617037    ( 0.0000,  0.0000,  0.0000)
  11 Li     6.468148    0.000000   11.617037    ( 0.0000,  0.0000,  0.0000)
  12 Li     0.000000    3.234074   11.617037    ( 0.0000,  0.0000,  0.0000)
  13 Li     3.234074    3.234074   11.617037    ( 0.0000,  0.0000,  0.0000)
  14 Li     6.468148    3.234074   11.617037    ( 0.0000,  0.0000,  0.0000)
  15 Li     0.000000    6.468148   11.617037    ( 0.0000,  0.0000,  0.0000)
  16 Li     3.234074    6.468148   11.617037    ( 0.0000,  0.0000,  0.0000)
  17 Li     6.468148    6.468148   11.617037    ( 0.0000,  0.0000,  0.0000)
  18 Li     1.666624    1.727048   13.694716    ( 0.0000,  0.0000,  0.0000)
  19 Li     5.146990    1.363249   13.517878    ( 0.0000,  0.0000,  0.0000)
  20 Li     7.841542    1.451925   13.526386    ( 0.0000,  0.0000,  0.0000)
  21 Li     1.478183    4.778341   13.481260    ( 0.0000,  0.0000,  0.0000)
  22 Li     4.097361    5.262753   14.069980    ( 0.0000,  0.0000,  0.0000)
  23 Li     7.978872    4.853315   13.497213    ( 0.0000,  0.0000,  0.0000)
  24 Li     2.133068    7.466146   13.933385    ( 0.0000,  0.0000,  0.0000)
  25 Li     5.226329    8.287428   13.581835    ( 0.0000,  0.0000,  0.0000)
  26 Li     7.979342    8.365889   13.587576    ( 0.0000,  0.0000,  0.0000)
  27 Li     0.538871    0.422654   15.733699    ( 0.0000,  0.0000,  0.0000)
  28 Li     3.103818    1.292044   15.992570    ( 0.0000,  0.0000,  0.0000)
  29 Li     6.408304    0.040250   15.498469    ( 0.0000,  0.0000,  0.0000)
  30 Li    -0.185788    3.018319   15.496540    ( 0.0000,  0.0000,  0.0000)
  31 Li     2.287086    3.863676   15.713710    ( 0.0000,  0.0000,  0.0000)
  32 Li     6.262545    3.490804   15.437216    ( 0.0000,  0.0000,  0.0000)
  33 Li     0.510983    6.194459   15.450704    ( 0.0000,  0.0000,  0.0000)
  34 Li     3.478294    6.619958   16.140397    ( 0.0000,  0.0000,  0.0000)
  35 Li     6.890187    6.465426   15.675215    ( 0.0000,  0.0000,  0.0000)
  36 N      1.450166    2.066166   15.542306    ( 0.0000,  0.0000,  0.0000)
  37 N      6.560908    9.705134   13.607041    ( 0.0000,  0.0000,  0.0000)
  38 N      2.325260    5.741447   14.918332    ( 0.0000,  0.0000,  0.0000)

Unit cell:
           periodic     x           y           z      points  spacing
  1. axis:    yes    9.702222    0.000000    0.000000    60     0.1617
  2. axis:    yes    0.000000    9.702222    0.000000    60     0.1617
  3. axis:    no     0.000000    0.000000   24.851111   156     0.1593

  Lengths:   9.702222   9.702222  24.851111
  Angles:   90.000000  90.000000  90.000000

Effective grid spacing dv^(1/3) = 0.1609

     iter     time        total  log10-change:
                         energy  eigst   dens
iter:   1 20:20:30  -272.614038
iter:   2 20:21:02  -260.948516  +0.85  -0.41
iter:   3 20:21:29  -254.917652  +1.82  -0.52
iter:   4 20:21:52  -252.616878  +1.31  -0.69
Writing to output.gpw (mode='')

iter:   5 20:22:36  -252.518859  +0.88  -0.83
iter:   6 20:23:04  -254.235925  +0.72  -0.87
iter:   7 20:23:31  -254.477247  +0.51  -0.85
iter:   8 20:23:58  -253.085821  +0.13  -0.78
iter:   9 20:24:25  -252.295684  +1.12  -0.89
Writing to output.gpw (mode='')

iter:  10 20:24:53  -252.230550  +0.36  -1.24
iter:  11 20:25:25  -252.809062  +0.58  -1.27
iter:  12 20:25:53  -252.189976  -0.19  -1.15
iter:  13 20:26:21  -252.080195  +0.01  -1.30
iter:  14 20:26:49  -252.153102  -0.43  -1.39
Writing to output.gpw (mode='')

iter:  15 20:27:17  -252.059806  -0.29  -1.40
iter:  16 20:27:45  -252.018104  -1.12  -1.44
iter:  17 20:28:12  -251.984801  -0.91  -1.57
iter:  18 20:28:39  -251.986517  -1.03  -1.84
iter:  19 20:29:05  -251.990242c -1.30  -1.97
Writing to output.gpw (mode='')

iter:  20 20:29:32  -251.991992c -1.63  -2.03
iter:  21 20:29:59  -251.990905c -1.72  -2.04
iter:  22 20:30:26  -251.992528c -1.93  -2.09
iter:  23 20:30:53  -251.997380c -1.67  -2.19
iter:  24 20:31:21  -251.995582c -2.19  -2.11
Writing to output.gpw (mode='')

iter:  25 20:31:46  -251.992629c -1.90  -2.16
iter:  26 20:32:29  -251.992451c -2.69  -2.31
iter:  27 20:33:13  -251.993308c -2.12  -2.37
iter:  28 20:33:40  -251.993253c -2.67  -2.47
iter:  29 20:34:06  -251.993457c -2.84  -2.48
Writing to output.gpw (mode='')

iter:  30 20:34:33  -251.993735c -2.58  -2.45
iter:  31 20:35:27  -251.993788c -2.69  -2.50
iter:  32 20:36:22  -251.993624c -3.33  -2.47
iter:  33 20:37:16  -251.995286c -2.59  -2.49
iter:  34 20:38:11  -251.994290c -3.12  -2.55
Writing to output.gpw (mode='')

iter:  35 20:39:02  -251.993891c -2.19  -2.62
iter:  36 20:39:32  -251.993974c -2.89  -2.68
iter:  37 20:40:03  -251.994131c -3.11  -2.72
iter:  38 20:40:34  -251.994122c -3.30  -3.02
iter:  39 20:41:04  -251.994142c -3.59  -3.20
Writing to output.gpw (mode='')

iter:  40 20:41:33  -251.994135c -3.51  -3.20
iter:  41 20:42:04  -251.994155c -3.78  -3.23
iter:  42 20:42:33  -251.994187c -3.90  -3.24
iter:  43 20:43:02  -251.994176c -4.17  -3.30
iter:  44 20:43:32  -251.994197c -4.09  -3.36
Writing to output.gpw (mode='')

iter:  45 20:44:02  -251.994214c -4.02  -3.37
iter:  46 20:44:34  -251.994225c -4.54  -3.50
iter:  47 20:45:03  -251.994206c -4.23  -3.45
iter:  48 20:45:33  -251.994204c -4.64  -3.57
iter:  49 20:46:03  -251.994207c -4.74  -3.54
Writing to output.gpw (mode='')

iter:  50 20:46:34  -251.994201c -4.52  -3.58
iter:  51 20:47:06  -251.994206c -4.76  -3.59
iter:  52 20:47:36  -251.994197c -5.01  -3.64
iter:  53 20:48:09  -251.994204c -5.06  -3.86
iter:  54 20:48:38  -251.994209c -4.90  -3.93
Writing to output.gpw (mode='')

iter:  55 20:49:08  -251.994212c -5.09  -4.07c
iter:  56 20:49:36  -251.994211c -5.15  -4.07c
iter:  57 20:50:05  -251.994215c -5.16  -4.08c
iter:  58 20:50:36  -251.994216c -5.28  -4.24c
iter:  59 20:51:05  -251.994217c -5.41  -4.26c
Writing to output.gpw (mode='')

iter:  60 20:51:32  -251.994217c -5.59  -4.22c
iter:  61 20:52:01  -251.994216c -5.61  -4.22c
iter:  62 20:53:35  -251.994217c -5.65  -4.22c
iter:  63 20:55:21  -251.994218c -5.61  -4.24c
iter:  64 20:57:26  -251.994218c -5.73  -4.19c
Writing to output.gpw (mode='')

iter:  65 20:59:09  -251.994220c -6.06  -4.23c
iter:  66 21:00:04  -251.994218c -6.02  -4.19c
iter:  67 21:00:56  -251.994213c -6.00  -4.26c
iter:  68 21:01:49  -251.994212c -6.17  -4.61c
iter:  69 21:03:08  -251.994211c -6.15  -4.79c
Writing to output.gpw (mode='')

iter:  70 21:04:09  -251.994211c -6.18  -4.92c
iter:  71 21:05:27  -251.994212c -6.23  -4.96c
iter:  72 21:06:57  -251.994212c -6.23  -4.97c
iter:  73 21:08:39  -251.994212c -6.41  -5.00c
iter:  74 21:10:09  -251.994212c -6.45  -5.08c
Writing to output.gpw (mode='')

iter:  75 21:11:44  -251.994212c -6.67  -5.12c
iter:  76 21:13:57  -251.994212c -6.83  -5.27c
iter:  77 21:15:43  -251.994212c -6.91  -5.61c
iter:  78 21:18:00  -251.994212c -6.97  -5.67c
iter:  79 21:19:28  -251.994212c -6.99  -5.67c
Writing to output.gpw (mode='')

iter:  80 21:21:02  -251.994212c -7.00  -5.74c
iter:  81 21:22:32  -251.994212c -7.14  -5.88c
iter:  82 21:24:04  -251.994212c -7.17  -5.89c
iter:  83 21:26:20  -251.994212c -7.19  -5.87c
iter:  84 21:28:27  -251.994212c -7.30  -5.80c
Writing to output.gpw (mode='')

iter:  85 21:32:39  -251.994212c -7.46c -5.78c

Converged after 85 iterations.

Dipole moment: (-4.239427, -10.432113, 0.080322) |e|*Ang

Energy contributions relative to reference atoms: (reference = -11745.526041)

Kinetic:       +101.342142
Potential:      -87.649255
External:        +0.000000
XC:            -266.201168
Entropy (-ST):   -0.153780
Local:           +0.590960
--------------------------
Free energy:   -252.071102
Extrapolated:  -251.994212

Dipole-layer corrected work functions: 3.384022, 3.229615 eV

Showing only first 2 kpts
 Kpt  Band  Eigenvalues  Occupancy
  0    23     -3.49487    1.95454
  0    24     -3.35298    1.43137
  0    25     -3.28517    0.78681
  0    26     -3.20418    0.22756

  1    23     -3.62579    1.99661
  1    24     -3.50126    1.95988
  1    25     -3.34841    1.39346
  1    26     -3.15522    0.09200


Fermi level: -3.30682

No gap

Forces in eV/Ang:
  0 Li    0.00355    0.00536   -0.27534
  1 Li   -0.00300   -0.00184   -0.37382
  2 Li   -0.00202    0.01311   -0.35923
  3 Li   -0.00660   -0.00347   -0.27387
  4 Li    0.03597    0.00933   -0.32743
  5 Li    0.00054   -0.00073   -0.28676
  6 Li    0.00329    0.01298   -0.31249
  7 Li   -0.00574    0.00121   -0.33899
  8 Li   -0.00956   -0.02181   -0.37789
  9 Li    0.19166   -0.04399    0.34599
 10 Li   -0.13393   -0.06197    0.35732
 11 Li    0.09553   -0.03439    0.57935
 12 Li   -0.10438   -0.05181    0.25151
 13 Li    0.11522   -0.04355    0.27447
 14 Li   -0.10649    0.15256    0.35803
 15 Li   -0.04614    0.07215    0.36717
 16 Li    0.07858   -0.02420    0.13796
 17 Li   -0.10790   -0.08016    0.35838
 18 Li    0.01257   -0.02846    0.00884
 19 Li   -0.01055   -0.01986   -0.01864
 20 Li    0.00507    0.00969   -0.02192
 21 Li    0.01555    0.01177   -0.00548
 22 Li    0.00217   -0.00244   -0.01348
 23 Li   -0.02389    0.02944    0.03465
 24 Li   -0.00432    0.01800    0.01494
 25 Li   -0.00941    0.00991    0.02035
 26 Li   -0.01147   -0.03554    0.00553
 27 Li    0.00556    0.01268    0.00019
 28 Li    0.01385    0.00725   -0.01630
 29 Li   -0.01908    0.02404   -0.00549
 30 Li    0.00254   -0.01418    0.01818
 31 Li   -0.03123    0.00049   -0.01632
 32 Li   -0.00947   -0.00737   -0.00982
 33 Li    0.00447   -0.00928    0.04946
 34 Li    0.00498    0.02063   -0.01551
 35 Li    0.00248   -0.02792   -0.01486
 36 N     0.02612    0.01247   -0.02863
 37 N     0.02814    0.00846   -0.06607
 38 N    -0.01169    0.06191   -0.00212

System changes: positions 

Initializing position-dependent things.

Density initialized from wave functions
       .-----------------------.  
      /|                       |  
     / |                       |  
    /  |                       |  
   /   |                       |  
  /    |                       |  
 *     |                       |  
 |     |                       |  
 |     |                       |  
 |     |                       |  
 |     |                       |  
 |     |                       |  
 |     |                       |  
 |     |      Li      Li       |  
 |    Li                       |  
 |     | LiLi      Li     Li   |  
 |    N| Li   Li   Li     Li   |  
 | Li  |Li              Li     |  
 |     |         Li            |  
 |   LLi     LiLi    Li        |  
 |     |  Li     NLi      Li   |  
 | Li  |   Li      Li          |  
 |     |Li      Li      Li     |  
 Li    | Li      Li            |  
 |    Li      Li      Li       |  
 |     |                       |  
 |     |                       |  
 |     |                       |  
 |     |                       |  
 |     |                       |  
 |     |                       |  
 |     .-----------------------.  
 |    /                       /   
 |   /                       /    
 |  /                       /     
 | /                       /      
 |/                       /       
 *-----------------------*        

Positions:
   0 Li     1.617037    1.617037   10.000000    ( 0.0000,  0.0000,  0.0000)
   1 Li     4.851111    1.617037   10.000000    ( 0.0000,  0.0000,  0.0000)
   2 Li     8.085185    1.617037   10.000000    ( 0.0000,  0.0000,  0.0000)
   3 Li     1.617037    4.851111   10.000000    ( 0.0000,  0.0000,  0.0000)
   4 Li     4.851111    4.851111   10.000000    ( 0.0000,  0.0000,  0.0000)
   5 Li     8.085185    4.851111   10.000000    ( 0.0000,  0.0000,  0.0000)
   6 Li     1.617037    8.085185   10.000000    ( 0.0000,  0.0000,  0.0000)
   7 Li     4.851111    8.085185   10.000000    ( 0.0000,  0.0000,  0.0000)
   8 Li     8.085185    8.085185   10.000000    ( 0.0000,  0.0000,  0.0000)
   9 Li     0.000000    0.000000   11.617037    ( 0.0000,  0.0000,  0.0000)
  10 Li     3.234074    0.000000   11.617037    ( 0.0000,  0.0000,  0.0000)
  11 Li     6.468148    0.000000   11.617037    ( 0.0000,  0.0000,  0.0000)
  12 Li     0.000000    3.234074   11.617037    ( 0.0000,  0.0000,  0.0000)
  13 Li     3.234074    3.234074   11.617037    ( 0.0000,  0.0000,  0.0000)
  14 Li     6.468148    3.234074   11.617037    ( 0.0000,  0.0000,  0.0000)
  15 Li     0.000000    6.468148   11.617037    ( 0.0000,  0.0000,  0.0000)
  16 Li     3.234074    6.468148   11.617037    ( 0.0000,  0.0000,  0.0000)
  17 Li     6.468148    6.468148   11.617037    ( 0.0000,  0.0000,  0.0000)
  18 Li     1.666803    1.726642   13.694843    ( 0.0000,  0.0000,  0.0000)
  19 Li     5.146839    1.362965   13.517612    ( 0.0000,  0.0000,  0.0000)
  20 Li     7.841614    1.452064   13.526073    ( 0.0000,  0.0000,  0.0000)
  21 Li     1.478405    4.778509   13.481181    ( 0.0000,  0.0000,  0.0000)
  22 Li     4.097392    5.262718   14.069788    ( 0.0000,  0.0000,  0.0000)
  23 Li     7.978530    4.853736   13.497708    ( 0.0000,  0.0000,  0.0000)
  24 Li     2.133007    7.466403   13.933598    ( 0.0000,  0.0000,  0.0000)
  25 Li     5.226195    8.287570   13.582126    ( 0.0000,  0.0000,  0.0000)
  26 Li     7.979178    8.365382   13.587655    ( 0.0000,  0.0000,  0.0000)
  27 Li     0.538951    0.422835   15.733702    ( 0.0000,  0.0000,  0.0000)
  28 Li     3.104016    1.292148   15.992338    ( 0.0000,  0.0000,  0.0000)
  29 Li     6.408032    0.040593   15.498390    ( 0.0000,  0.0000,  0.0000)
  30 Li    -0.185752    3.018117   15.496800    ( 0.0000,  0.0000,  0.0000)
  31 Li     2.286640    3.863683   15.713477    ( 0.0000,  0.0000,  0.0000)
  32 Li     6.262410    3.490699   15.437076    ( 0.0000,  0.0000,  0.0000)
  33 Li     0.511047    6.194327   15.451410    ( 0.0000,  0.0000,  0.0000)
  34 Li     3.478365    6.620253   16.140175    ( 0.0000,  0.0000,  0.0000)
  35 Li     6.890223    6.465027   15.675003    ( 0.0000,  0.0000,  0.0000)
  36 N      1.450539    2.066344   15.541897    ( 0.0000,  0.0000,  0.0000)
  37 N      6.561310    9.705255   13.606098    ( 0.0000,  0.0000,  0.0000)
  38 N      2.325093    5.742331   14.918302    ( 0.0000,  0.0000,  0.0000)

Unit cell:
           periodic     x           y           z      points  spacing
  1. axis:    yes    9.702222    0.000000    0.000000    60     0.1617
  2. axis:    yes    0.000000    9.702222    0.000000    60     0.1617
  3. axis:    no     0.000000    0.000000   24.851111   156     0.1593

  Lengths:   9.702222   9.702222  24.851111
  Angles:   90.000000  90.000000  90.000000

Effective grid spacing dv^(1/3) = 0.1609

     iter     time        total  log10-change:
                         energy  eigst   dens
iter:   1 21:35:53  -251.994638  -3.91
iter:   2 21:40:41  -251.994608  -4.63  -3.58
iter:   3 21:44:22  -251.994614c -5.12  -3.64
iter:   4 21:46:59  -251.994604c -5.11  -3.68
Writing to output.gpw (mode='')

iter:   5 21:49:12  -251.994605c -5.35  -3.93
iter:   6 21:53:19  -251.994607c -5.39  -4.06c
iter:   7 21:56:32  -251.994606c -5.45  -4.32c
iter:   8 22:01:35  -251.994607c -6.14  -4.36c
iter:   9 22:04:32  -251.994607c -6.46  -4.61c
Writing to output.gpw (mode='')

iter:  10 22:07:33  -251.994608c -6.65  -4.62c
iter:  11 22:11:38  -251.994607c -6.80  -4.70c
iter:  12 22:14:49  -251.994608c -7.05  -4.79c
iter:  13 22:17:27  -251.994607c -7.12  -4.95c
iter:  14 22:20:35  -251.994608c -7.35  -4.99c
Writing to output.gpw (mode='')

iter:  15 22:23:46  -251.994608c -7.48c -5.02c

Converged after 15 iterations.

Dipole moment: (-4.240376, -10.449317, 0.080394) |e|*Ang

Energy contributions relative to reference atoms: (reference = -11745.526041)

Kinetic:       +101.343289
Potential:      -87.650191
External:        +0.000000
XC:            -266.201753
Entropy (-ST):   -0.153749
Local:           +0.590921
--------------------------
Free energy:   -252.071482
Extrapolated:  -251.994608

Dipole-layer corrected work functions: 3.384025, 3.229480 eV

Showing only first 2 kpts
 Kpt  Band  Eigenvalues  Occupancy
  0    23     -3.49483    1.95456
  0    24     -3.35295    1.43168
  0    25     -3.28507    0.78647
  0    26     -3.20418    0.22781

  1    23     -3.62566    1.99661
  1    24     -3.50130    1.95997
  1    25     -3.34824    1.39259
  1    26     -3.15518    0.09205


Fermi level: -3.30675

No gap

Forces in eV/Ang:
  0 Li    0.00355    0.00530   -0.27533
  1 Li   -0.00297   -0.00185   -0.37389
  2 Li   -0.00203    0.01314   -0.35942
  3 Li   -0.00657   -0.00346   -0.27390
  4 Li    0.03596    0.00934   -0.32736
  5 Li    0.00049   -0.00073   -0.28672
  6 Li    0.00329    0.01301   -0.31249
  7 Li   -0.00571    0.00122   -0.33906
  8 Li   -0.00955   -0.02186   -0.37799
  9 Li    0.19134   -0.04411    0.34618
 10 Li   -0.13406   -0.06207    0.35719
 11 Li    0.09568   -0.03464    0.57709
 12 Li   -0.10428   -0.05158    0.25176
 13 Li    0.11516   -0.04361    0.27443
 14 Li   -0.10647    0.15272    0.35821
 15 Li   -0.04609    0.07200    0.36717
 16 Li    0.07839   -0.02406    0.13809
 17 Li   -0.10799   -0.08010    0.35849
 18 Li    0.01285   -0.02816    0.00622
 19 Li   -0.01008   -0.01924   -0.01880
 20 Li    0.00545    0.00979   -0.02179
 21 Li    0.01499    0.01268   -0.00482
 22 Li    0.00158   -0.00169   -0.01272
 23 Li   -0.02328    0.02885    0.03397
 24 Li   -0.00490    0.01909    0.01417
 25 Li   -0.00846    0.01014    0.01958
 26 Li   -0.01135   -0.03444    0.00512
 27 Li    0.00604    0.01301    0.00014
 28 Li    0.01463    0.00723   -0.01614
 29 Li   -0.01814    0.02387   -0.00941
 30 Li    0.00229   -0.01413    0.01751
 31 Li   -0.02926    0.00279   -0.01621
 32 Li   -0.00953   -0.00770   -0.00974
 33 Li    0.00395   -0.00845    0.04850
 34 Li    0.00580    0.02125   -0.01476
 35 Li    0.00224   -0.02750   -0.01418
 36 N     0.02306    0.00980   -0.02594
 37 N     0.02600    0.00758   -0.06279
 38 N    -0.01038    0.05772   -0.00304

System changes: positions 

Initializing position-dependent things.

Density initialized from wave functions
       .-----------------------.  
      /|                       |  
     / |                       |  
    /  |                       |  
   /   |                       |  
  /    |                       |  
 *     |                       |  
 |     |                       |  
 |     |                       |  
 |     |                       |  
 |     |                       |  
 |     |                       |  
 |     |                       |  
 |     |      Li      Li       |  
 |    Li                       |  
 |     | LiLi      Li     Li   |  
 |    N| Li   Li   Li     Li   |  
 | Li  |Li              Li     |  
 |     |         Li            |  
 |   LLi     LiLi    Li        |  
 |     |  Li     NLi      Li   |  
 | Li  |   Li      Li          |  
 |     |Li      Li      Li     |  
 Li    | Li      Li            |  
 |    Li      Li      Li       |  
 |     |                       |  
 |     |                       |  
 |     |                       |  
 |     |                       |  
 |     |                       |  
 |     |                       |  
 |     .-----------------------.  
 |    /                       /   
 |   /                       /    
 |  /                       /     
 | /                       /      
 |/                       /       
 *-----------------------*        

Positions:
   0 Li     1.617037    1.617037   10.000000    ( 0.0000,  0.0000,  0.0000)
   1 Li     4.851111    1.617037   10.000000    ( 0.0000,  0.0000,  0.0000)
   2 Li     8.085185    1.617037   10.000000    ( 0.0000,  0.0000,  0.0000)
   3 Li     1.617037    4.851111   10.000000    ( 0.0000,  0.0000,  0.0000)
   4 Li     4.851111    4.851111   10.000000    ( 0.0000,  0.0000,  0.0000)
   5 Li     8.085185    4.851111   10.000000    ( 0.0000,  0.0000,  0.0000)
   6 Li     1.617037    8.085185   10.000000    ( 0.0000,  0.0000,  0.0000)
   7 Li     4.851111    8.085185   10.000000    ( 0.0000,  0.0000,  0.0000)
   8 Li     8.085185    8.085185   10.000000    ( 0.0000,  0.0000,  0.0000)
   9 Li     0.000000    0.000000   11.617037    ( 0.0000,  0.0000,  0.0000)
  10 Li     3.234074    0.000000   11.617037    ( 0.0000,  0.0000,  0.0000)
  11 Li     6.468148    0.000000   11.617037    ( 0.0000,  0.0000,  0.0000)
  12 Li     0.000000    3.234074   11.617037    ( 0.0000,  0.0000,  0.0000)
  13 Li     3.234074    3.234074   11.617037    ( 0.0000,  0.0000,  0.0000)
  14 Li     6.468148    3.234074   11.617037    ( 0.0000,  0.0000,  0.0000)
  15 Li     0.000000    6.468148   11.617037    ( 0.0000,  0.0000,  0.0000)
  16 Li     3.234074    6.468148   11.617037    ( 0.0000,  0.0000,  0.0000)
  17 Li     6.468148    6.468148   11.617037    ( 0.0000,  0.0000,  0.0000)
  18 Li     1.671857    1.715542   13.697356    ( 0.0000,  0.0000,  0.0000)
  19 Li     5.142857    1.355369   13.510209    ( 0.0000,  0.0000,  0.0000)
  20 Li     7.843752    1.455917   13.517486    ( 0.0000,  0.0000,  0.0000)
  21 Li     1.484323    4.783482   13.479266    ( 0.0000,  0.0000,  0.0000)
  22 Li     4.098028    5.262035   14.064758    ( 0.0000,  0.0000,  0.0000)
  23 Li     7.969345    4.865116   13.511108    ( 0.0000,  0.0000,  0.0000)
  24 Li     2.131092    7.473899   13.939197    ( 0.0000,  0.0000,  0.0000)
  25 Li     5.222839    8.291560   13.589860    ( 0.0000,  0.0000,  0.0000)
  26 Li     7.974705    8.351786   13.589680    ( 0.0000,  0.0000,  0.0000)
  27 Li     0.541320    0.427952   15.733758    ( 0.0000,  0.0000,  0.0000)
  28 Li     3.109763    1.294997   15.985974    ( 0.0000,  0.0000,  0.0000)
  29 Li     6.400861    0.050003   15.494777    ( 0.0000,  0.0000,  0.0000)
  30 Li    -0.184844    3.012550   15.503715    ( 0.0000,  0.0000,  0.0000)
  31 Li     2.275064    3.864726   15.707090    ( 0.0000,  0.0000,  0.0000)
  32 Li     6.258658    3.487673   15.433237    ( 0.0000,  0.0000,  0.0000)
  33 Li     0.512617    6.190977   15.470539    ( 0.0000,  0.0000,  0.0000)
  34 Li     3.480629    6.628610   16.134342    ( 0.0000,  0.0000,  0.0000)
  35 Li     6.891110    6.454184   15.669400    ( 0.0000,  0.0000,  0.0000)
  36 N      1.459696    2.070268   15.531611    ( 0.0000,  0.0000,  0.0000)
  37 N      6.571606    9.708261   13.581283    ( 0.0000,  0.0000,  0.0000)
  38 N      2.320972    5.765172   14.917126    ( 0.0000,  0.0000,  0.0000)

Unit cell:
           periodic     x           y           z      points  spacing
  1. axis:    yes    9.702222    0.000000    0.000000    60     0.1617
  2. axis:    yes    0.000000    9.702222    0.000000    60     0.1617
  3. axis:    no     0.000000    0.000000   24.851111   156     0.1593

  Lengths:   9.702222   9.702222  24.851111
  Angles:   90.000000  90.000000  90.000000

Effective grid spacing dv^(1/3) = 0.1609

     iter     time        total  log10-change:
                         energy  eigst   dens
iter:   1 22:27:23  -252.002682  -1.08
iter:   2 22:31:01  -252.001801  -1.80  -2.15
iter:   3 22:34:45  -252.001561c -2.28  -2.21
iter:   4 22:42:14  -251.998392c -2.28  -2.26
Writing to output.gpw (mode='')

iter:   5 22:49:16  -251.998164c -2.56  -2.51
iter:   6 22:56:58  -251.997907c -2.56  -2.63
iter:   7 23:02:33  -251.998031c -2.57  -2.89
iter:   8 23:07:13  -251.997953c -3.32  -2.92
iter:   9 23:12:41  -251.997982c -3.61  -3.18
Writing to output.gpw (mode='')

iter:  10 23:18:00  -251.998024c -3.78  -3.20
iter:  11 23:23:12  -251.998018c -3.97  -3.26
iter:  12 23:28:01  -251.998028c -4.21  -3.36
iter:  13 23:31:50  -251.998019c -4.30  -3.55
iter:  14 23:36:03  -251.998036c -4.53  -3.60
Writing to output.gpw (mode='')

iter:  15 23:40:16  -251.998032c -4.79  -3.62
iter:  16 23:43:48  -251.998038c -4.94  -3.65
iter:  17 23:48:31  -251.998034c -5.01  -3.82
iter:  18 23:51:46  -251.998036c -5.27  -4.04c
iter:  19 23:56:16  -251.998036c -5.42  -4.00c
Writing to output.gpw (mode='')

iter:  20 00:02:27  -251.998037c -5.44  -4.02c
iter:  21 00:07:17  -251.998039c -5.52  -4.07c
iter:  22 00:11:54  -251.998038c -5.55  -4.29c
iter:  23 00:17:40  -251.998039c -5.96  -4.37c
iter:  24 00:20:51  -251.998039c -6.06  -4.40c
Writing to output.gpw (mode='')

iter:  25 00:24:50  -251.998041c -6.06  -4.43c
iter:  26 00:29:09  -251.998039c -6.11  -4.60c
iter:  27 00:34:25  -251.998039c -6.47  -4.68c
iter:  28 00:38:49  -251.998039c -6.49  -4.71c
iter:  29 00:44:22  -251.998039c -6.71  -4.89c
Writing to output.gpw (mode='')

iter:  30 00:48:54  -251.998039c -6.73  -4.94c
iter:  31 00:53:07  -251.998040c -6.74  -5.14c
iter:  32 00:57:39  -251.998040c -7.07  -5.23c
iter:  33 01:02:21  -251.998040c -7.04  -5.33c
iter:  34 01:07:27  -251.998040c -7.26  -5.42c
Writing to output.gpw (mode='')

iter:  35 01:12:38  -251.998040c -7.31  -5.54c
iter:  36 01:17:54  -251.998040c -7.52c -5.73c

Converged after 36 iterations.

Dipole moment: (-4.265087, -10.882511, 0.082351) |e|*Ang

Energy contributions relative to reference atoms: (reference = -11745.526041)

Kinetic:       +101.398414
Potential:      -87.690465
External:        +0.000000
XC:            -266.220800
Entropy (-ST):   -0.152847
Local:           +0.591235
--------------------------
Free energy:   -252.074463
Extrapolated:  -251.998040

Dipole-layer corrected work functions: 3.383808, 3.225502 eV

Showing only first 2 kpts
 Kpt  Band  Eigenvalues  Occupancy
  0    23     -3.49349    1.95523
  0    24     -3.35178    1.43922
  0    25     -3.28223    0.77941
  0    26     -3.20347    0.23346

  1    23     -3.62204    1.99650
  1    24     -3.50201    1.96211
  1    25     -3.34335    1.36869
  1    26     -3.15380    0.09332


Fermi level: -3.30466

No gap
Writing to output.gpw (mode='')


Forces in eV/Ang:
  0 Li    0.00298    0.00378   -0.27463
  1 Li   -0.00188   -0.00226   -0.37589
  2 Li   -0.00235    0.01414   -0.36396
  3 Li   -0.00626   -0.00350   -0.27460
  4 Li    0.03645    0.00885   -0.32580
  5 Li   -0.00083   -0.00101   -0.28501
  6 Li    0.00288    0.01389   -0.31219
  7 Li   -0.00462    0.00215   -0.34108
  8 Li   -0.00899   -0.02272   -0.38044
  9 Li    0.18276   -0.04714    0.35120
 10 Li   -0.13742   -0.06472    0.35306
 11 Li    0.09938   -0.04136    0.51119
 12 Li   -0.10187   -0.04531    0.25881
 13 Li    0.11325   -0.04511    0.27393
 14 Li   -0.10548    0.15715    0.36216
 15 Li   -0.04569    0.06788    0.36720
 16 Li    0.07338   -0.02019    0.14199
 17 Li   -0.10980   -0.07859    0.36150
 18 Li    0.01886   -0.01935   -0.05633
 19 Li    0.00204   -0.00277   -0.02319
 20 Li    0.01455    0.01048   -0.01795
 21 Li   -0.00177    0.03407    0.00871
 22 Li   -0.01144    0.01750    0.00544
 23 Li   -0.00649    0.01245    0.01365
 24 Li   -0.01979    0.04782   -0.00708
 25 Li    0.01495    0.01379   -0.00052
 26 Li   -0.00900   -0.00436   -0.00611
 27 Li    0.01514    0.01584   -0.00033
 28 Li    0.03139    0.00733   -0.01346
 29 Li    0.00660    0.01957   -0.09673
 30 Li   -0.00466   -0.01212    0.00059
 31 Li    0.01994    0.05405   -0.01150
 32 Li   -0.01037   -0.01669   -0.00756
 33 Li   -0.00634    0.01126    0.02258
 34 Li    0.02559    0.03519    0.00231
 35 Li   -0.00502   -0.01488    0.00475
 36 N    -0.08738   -0.00951    0.05903
 37 N    -0.01160   -0.03657    0.11573
 38 N     0.07097   -0.13606   -0.07299

System changes: positions 

Initializing position-dependent things.

Density initialized from wave functions
       .-----------------------.  
      /|                       |  
     / |                       |  
    /  |                       |  
   /   |                       |  
  /    |                       |  
 *     |                       |  
 |     |                       |  
 |     |                       |  
 |     |                       |  
 |     |                       |  
 |     |                       |  
 |     |                       |  
 |     |      Li      Li       |  
 |    Li                       |  
 |     | LiLi      Li     Li   |  
 |    N| Li   Li   Li     Li   |  
 | Li  |Li              Li     |  
 |     |         Li            |  
 |   LLi     LiLi    Li        |  
 |     |  Li     NLi      Li   |  
 | Li  |   Li      Li          |  
 |     |Li      Li      Li     |  
 Li    | Li      Li            |  
 |    Li      Li      Li       |  
 |     |                       |  
 |     |                       |  
 |     |                       |  
 |     |                       |  
 |     |                       |  
 |     |                       |  
 |     .-----------------------.  
 |    /                       /   
 |   /                       /    
 |  /                       /     
 | /                       /      
 |/                       /       
 *-----------------------*        

Positions:
   0 Li     1.617037    1.617037   10.000000    ( 0.0000,  0.0000,  0.0000)
   1 Li     4.851111    1.617037   10.000000    ( 0.0000,  0.0000,  0.0000)
   2 Li     8.085185    1.617037   10.000000    ( 0.0000,  0.0000,  0.0000)
   3 Li     1.617037    4.851111   10.000000    ( 0.0000,  0.0000,  0.0000)
   4 Li     4.851111    4.851111   10.000000    ( 0.0000,  0.0000,  0.0000)
   5 Li     8.085185    4.851111   10.000000    ( 0.0000,  0.0000,  0.0000)
   6 Li     1.617037    8.085185   10.000000    ( 0.0000,  0.0000,  0.0000)
   7 Li     4.851111    8.085185   10.000000    ( 0.0000,  0.0000,  0.0000)
   8 Li     8.085185    8.085185   10.000000    ( 0.0000,  0.0000,  0.0000)
   9 Li     0.000000    0.000000   11.617037    ( 0.0000,  0.0000,  0.0000)
  10 Li     3.234074    0.000000   11.617037    ( 0.0000,  0.0000,  0.0000)
  11 Li     6.468148    0.000000   11.617037    ( 0.0000,  0.0000,  0.0000)
  12 Li     0.000000    3.234074   11.617037    ( 0.0000,  0.0000,  0.0000)
  13 Li     3.234074    3.234074   11.617037    ( 0.0000,  0.0000,  0.0000)
  14 Li     6.468148    3.234074   11.617037    ( 0.0000,  0.0000,  0.0000)
  15 Li     0.000000    6.468148   11.617037    ( 0.0000,  0.0000,  0.0000)
  16 Li     3.234074    6.468148   11.617037    ( 0.0000,  0.0000,  0.0000)
  17 Li     6.468148    6.468148   11.617037    ( 0.0000,  0.0000,  0.0000)
  18 Li     1.670759    1.718154   13.696214    ( 0.0000,  0.0000,  0.0000)
  19 Li     5.143875    1.357251   13.511856    ( 0.0000,  0.0000,  0.0000)
  20 Li     7.843348    1.455044   13.519479    ( 0.0000,  0.0000,  0.0000)
  21 Li     1.482819    4.782543   13.479824    ( 0.0000,  0.0000,  0.0000)
  22 Li     4.097765    5.262366   14.066070    ( 0.0000,  0.0000,  0.0000)
  23 Li     7.971593    4.862371   13.507866    ( 0.0000,  0.0000,  0.0000)
  24 Li     2.131392    7.472454   13.937726    ( 0.0000,  0.0000,  0.0000)
  25 Li     5.223818    8.290683   13.587913    ( 0.0000,  0.0000,  0.0000)
  26 Li     7.975745    8.355162   13.589116    ( 0.0000,  0.0000,  0.0000)
  27 Li     0.540861    0.426808   15.733741    ( 0.0000,  0.0000,  0.0000)
  28 Li     3.108604    1.294349   15.987448    ( 0.0000,  0.0000,  0.0000)
  29 Li     6.402722    0.047818   15.494810    ( 0.0000,  0.0000,  0.0000)
  30 Li    -0.185115    3.013838   15.501984    ( 0.0000,  0.0000,  0.0000)
  31 Li     2.278152    3.864953   15.708590    ( 0.0000,  0.0000,  0.0000)
  32 Li     6.259506    3.488280   15.434132    ( 0.0000,  0.0000,  0.0000)
  33 Li     0.512167    6.191920   15.465941    ( 0.0000,  0.0000,  0.0000)
  34 Li     3.480293    6.626832   16.135826    ( 0.0000,  0.0000,  0.0000)
  35 Li     6.890841    6.456772   15.670851    ( 0.0000,  0.0000,  0.0000)
  36 N      1.456577    2.069229   15.534744    ( 0.0000,  0.0000,  0.0000)
  37 N      6.568926    9.707158   13.588635    ( 0.0000,  0.0000,  0.0000)
  38 N      2.322687    5.758135   14.916724    ( 0.0000,  0.0000,  0.0000)

Unit cell:
           periodic     x           y           z      points  spacing
  1. axis:    yes    9.702222    0.000000    0.000000    60     0.1617
  2. axis:    yes    0.000000    9.702222    0.000000    60     0.1617
  3. axis:    no     0.000000    0.000000   24.851111   156     0.1593

  Lengths:   9.702222   9.702222  24.851111
  Angles:   90.000000  90.000000  90.000000

Effective grid spacing dv^(1/3) = 0.1609

     iter     time        total  log10-change:
                         energy  eigst   dens
iter:   1 01:21:43  -251.999315  -2.19
iter:   2 01:25:50  -251.999611  -2.90  -2.69
iter:   3 01:31:20  -251.999502c -3.38  -2.76
iter:   4 01:37:01  -251.999267c -3.32  -2.81
Writing to output.gpw (mode='')

iter:   5 01:41:54  -251.999247c -3.55  -3.07
iter:   6 01:46:20  -251.999192c -3.69  -3.18
iter:   7 01:49:47  -251.999212c -3.77  -3.45
iter:   8 01:54:37  -251.999200c -4.43  -3.52
iter:   9 01:58:33  -251.999200c -4.76  -3.74
Writing to output.gpw (mode='')

iter:  10 02:04:55  -251.999189c -5.01  -3.77
iter:  11 02:10:29  -251.999199c -5.11  -3.87
iter:  12 02:13:56  -251.999192c -5.32  -3.96
iter:  13 02:17:40  -251.999197c -5.49  -4.02c
iter:  14 02:20:44  -251.999196c -5.61  -4.05c
Writing to output.gpw (mode='')

iter:  15 02:24:19  -251.999196c -5.97  -4.09c
iter:  16 02:28:46  -251.999195c -6.06  -4.12c
iter:  17 02:33:45  -251.999197c -6.17  -4.27c
iter:  18 02:39:27  -251.999197c -5.99  -4.38c
iter:  19 02:44:08  -251.999197c -6.46  -4.61c
Writing to output.gpw (mode='')

iter:  20 02:49:09  -251.999197c -6.58  -4.72c
iter:  21 02:54:22  -251.999196c -6.65  -4.77c
iter:  22 02:56:55  -251.999196c -6.85  -4.89c
iter:  23 03:00:10  -251.999196c -6.89  -4.97c
iter:  24 03:05:52  -251.999196c -7.33  -4.93c
Writing to output.gpw (mode='')

iter:  25 03:09:34  -251.999196c -7.18  -4.94c
iter:  26 03:13:13  -251.999196c -7.64c -4.95c

Converged after 26 iterations.

Dipole moment: (-4.257406, -10.741821, 0.081805) |e|*Ang

Energy contributions relative to reference atoms: (reference = -11745.526041)

Kinetic:       +101.376550
Potential:      -87.675295
External:        +0.000000
XC:            -266.215026
Entropy (-ST):   -0.153098
Local:           +0.591125
--------------------------
Free energy:   -252.075745
Extrapolated:  -251.999196

Dipole-layer corrected work functions: 3.383916, 3.226659 eV

Showing only first 2 kpts
 Kpt  Band  Eigenvalues  Occupancy
  0    23     -3.49383    1.95498
  0    24     -3.35214    1.43700
  0    25     -3.28308    0.78151
  0    26     -3.20376    0.23208

  1    23     -3.62312    1.99654
  1    24     -3.50174    1.96143
  1    25     -3.34471    1.37501
  1    26     -3.15418    0.09287


Fermi level: -3.30529

No gap
Writing to output.gpw (mode='')


Forces in eV/Ang:
  0 Li    0.00309    0.00425   -0.27479
  1 Li   -0.00216   -0.00214   -0.37515
  2 Li   -0.00227    0.01387   -0.36269
  3 Li   -0.00634   -0.00346   -0.27453
  4 Li    0.03624    0.00898   -0.32633
  5 Li   -0.00041   -0.00093   -0.28555
  6 Li    0.00296    0.01360   -0.31229
  7 Li   -0.00492    0.00192   -0.34051
  8 Li   -0.00912   -0.02249   -0.37981
  9 Li    0.18512   -0.04653    0.34976
 10 Li   -0.13651   -0.06402    0.35397
 11 Li    0.09880   -0.03978    0.53166
 12 Li   -0.10268   -0.04678    0.25710
 13 Li    0.11393   -0.04472    0.27408
 14 Li   -0.10565    0.15619    0.36105
 15 Li   -0.04596    0.06906    0.36711
 16 Li    0.07462   -0.02112    0.14138
 17 Li   -0.10940   -0.07892    0.36070
 18 Li    0.01628   -0.02015   -0.03362
 19 Li   -0.00087   -0.00726   -0.02174
 20 Li    0.01102    0.00864   -0.01869
 21 Li    0.00091    0.02580    0.00198
 22 Li   -0.00620    0.01148   -0.00021
 23 Li   -0.01063    0.01654    0.01867
 24 Li   -0.01532    0.03688   -0.00047
 25 Li    0.00756    0.01146    0.00485
 26 Li   -0.00869   -0.01269   -0.00286
 27 Li    0.01145    0.01237    0.00045
 28 Li    0.02295    0.00869   -0.01501
 29 Li   -0.00054    0.02073   -0.06683
 30 Li   -0.00530   -0.01067    0.00513
 31 Li    0.00581    0.03610   -0.01278
 32 Li   -0.01022   -0.01418   -0.00828
 33 Li    0.00026    0.00452    0.02736
 34 Li    0.01811    0.02922   -0.00526
 35 Li   -0.00300   -0.01794   -0.00025
 36 N    -0.04620   -0.01660    0.03167
 37 N     0.01438   -0.01707    0.07275
 38 N     0.04691   -0.06124   -0.03639

System changes: positions 

Initializing position-dependent things.

Density initialized from wave functions
       .-----------------------.  
      /|                       |  
     / |                       |  
    /  |                       |  
   /   |                       |  
  /    |                       |  
 *     |                       |  
 |     |                       |  
 |     |                       |  
 |     |                       |  
 |     |                       |  
 |     |                       |  
 |     |                       |  
 |     |      Li      Li       |  
 |    Li                       |  
 |     | LiLi      Li     Li   |  
 |    N| Li   Li   Li     Li   |  
 | Li  |Li              Li     |  
 |     |         Li            |  
 |   LLi     LiLi    Li        |  
 |     |  Li     NLi      Li   |  
 | Li  |   Li      Li          |  
 |     |Li      Li      Li     |  
 Li    | Li      Li            |  
 |    Li      Li      Li       |  
 |     |                       |  
 |     |                       |  
 |     |                       |  
 |     |                       |  
 |     |                       |  
 |     |                       |  
 |     .-----------------------.  
 |    /                       /   
 |   /                       /    
 |  /                       /     
 | /                       /      
 |/                       /       
 *-----------------------*        

Positions:
   0 Li     1.617037    1.617037   10.000000    ( 0.0000,  0.0000,  0.0000)
   1 Li     4.851111    1.617037   10.000000    ( 0.0000,  0.0000,  0.0000)
   2 Li     8.085185    1.617037   10.000000    ( 0.0000,  0.0000,  0.0000)
   3 Li     1.617037    4.851111   10.000000    ( 0.0000,  0.0000,  0.0000)
   4 Li     4.851111    4.851111   10.000000    ( 0.0000,  0.0000,  0.0000)
   5 Li     8.085185    4.851111   10.000000    ( 0.0000,  0.0000,  0.0000)
   6 Li     1.617037    8.085185   10.000000    ( 0.0000,  0.0000,  0.0000)
   7 Li     4.851111    8.085185   10.000000    ( 0.0000,  0.0000,  0.0000)
   8 Li     8.085185    8.085185   10.000000    ( 0.0000,  0.0000,  0.0000)
   9 Li     0.000000    0.000000   11.617037    ( 0.0000,  0.0000,  0.0000)
  10 Li     3.234074    0.000000   11.617037    ( 0.0000,  0.0000,  0.0000)
  11 Li     6.468148    0.000000   11.617037    ( 0.0000,  0.0000,  0.0000)
  12 Li     0.000000    3.234074   11.617037    ( 0.0000,  0.0000,  0.0000)
  13 Li     3.234074    3.234074   11.617037    ( 0.0000,  0.0000,  0.0000)
  14 Li     6.468148    3.234074   11.617037    ( 0.0000,  0.0000,  0.0000)
  15 Li     0.000000    6.468148   11.617037    ( 0.0000,  0.0000,  0.0000)
  16 Li     3.234074    6.468148   11.617037    ( 0.0000,  0.0000,  0.0000)
  17 Li     6.468148    6.468148   11.617037    ( 0.0000,  0.0000,  0.0000)
  18 Li     1.670988    1.717989   13.695415    ( 0.0000,  0.0000,  0.0000)
  19 Li     5.143954    1.357283   13.511568    ( 0.0000,  0.0000,  0.0000)
  20 Li     7.843535    1.455137   13.519286    ( 0.0000,  0.0000,  0.0000)
  21 Li     1.482694    4.782983   13.479918    ( 0.0000,  0.0000,  0.0000)
  22 Li     4.097614    5.262634   14.066190    ( 0.0000,  0.0000,  0.0000)
  23 Li     7.971591    4.862447   13.507936    ( 0.0000,  0.0000,  0.0000)
  24 Li     2.131106    7.473075   13.937573    ( 0.0000,  0.0000,  0.0000)
  25 Li     5.224066    8.290832   13.587826    ( 0.0000,  0.0000,  0.0000)
  26 Li     7.975665    8.355226   13.589002    ( 0.0000,  0.0000,  0.0000)
  27 Li     0.541050    0.426949   15.733749    ( 0.0000,  0.0000,  0.0000)
  28 Li     3.108965    1.294464   15.987281    ( 0.0000,  0.0000,  0.0000)
  29 Li     6.402890    0.048034   15.493452    ( 0.0000,  0.0000,  0.0000)
  30 Li    -0.185247    3.013741   15.501925    ( 0.0000,  0.0000,  0.0000)
  31 Li     2.278565    3.865710   15.708474    ( 0.0000,  0.0000,  0.0000)
  32 Li     6.259378    3.488047   15.434048    ( 0.0000,  0.0000,  0.0000)
  33 Li     0.512128    6.192103   15.466064    ( 0.0000,  0.0000,  0.0000)
  34 Li     3.480633    6.627261   16.135861    ( 0.0000,  0.0000,  0.0000)
  35 Li     6.890753    6.456653   15.670986    ( 0.0000,  0.0000,  0.0000)
  36 N      1.455290    2.068853   15.535712    ( 0.0000,  0.0000,  0.0000)
  37 N      6.568965    9.706673   13.590914    ( 0.0000,  0.0000,  0.0000)
  38 N      2.323861    5.756100   14.915875    ( 0.0000,  0.0000,  0.0000)

Unit cell:
           periodic     x           y           z      points  spacing
  1. axis:    yes    9.702222    0.000000    0.000000    60     0.1617
  2. axis:    yes    0.000000    9.702222    0.000000    60     0.1617
  3. axis:    no     0.000000    0.000000   24.851111   156     0.1593

  Lengths:   9.702222   9.702222  24.851111
  Angles:   90.000000  90.000000  90.000000

Effective grid spacing dv^(1/3) = 0.1609

     iter     time        total  log10-change:
                         energy  eigst   dens
iter:   1 03:18:11  -251.999728  -3.19
iter:   2 03:22:33  -251.999871  -3.82  -3.12
iter:   3 03:30:00  -251.999828c -4.31  -3.29
iter:   4 03:35:08  -251.999775c -3.83  -3.36
Writing to output.gpw (mode='')

iter:   5 03:39:36  -251.999784c -4.74  -3.58
iter:   6 03:43:26  -251.999794c -4.38  -3.68
iter:   7 03:45:59  -251.999785c -4.78  -3.67
iter:   8 03:50:11  -251.999784c -5.31  -4.11c
iter:   9 03:57:12  -251.999786c -5.87  -4.07c
Writing to output.gpw (mode='')

iter:  10 04:02:43  -251.999783c -5.60  -4.25c
iter:  11 04:08:21  -251.999787c -6.08  -4.40c
iter:  12 04:13:07  -251.999785c -6.33  -4.44c
iter:  13 04:19:15  -251.999784c -6.32  -4.48c
iter:  14 04:23:22  -251.999784c -6.65  -4.59c
Writing to output.gpw (mode='')

iter:  15 04:27:22  -251.999785c -6.66  -4.64c
iter:  16 04:31:35  -251.999785c -6.92  -4.83c
iter:  17 04:36:29  -251.999785c -7.24  -4.99c
iter:  18 04:42:59  -251.999785c -7.18  -5.06c
iter:  19 04:48:38  -251.999785c -7.36  -5.26c
Writing to output.gpw (mode='')

iter:  20 04:54:16  -251.999785c -7.68c -5.29c

Converged after 20 iterations.

Dipole moment: (-4.254120, -10.695312, 0.081677) |e|*Ang

Energy contributions relative to reference atoms: (reference = -11745.526041)

Kinetic:       +101.372564
Potential:      -87.672253
External:        +0.000000
XC:            -266.214634
Entropy (-ST):   -0.153140
Local:           +0.591108
--------------------------
Free energy:   -252.076355
Extrapolated:  -251.999785

Dipole-layer corrected work functions: 3.384006, 3.226993 eV

Showing only first 2 kpts
 Kpt  Band  Eigenvalues  Occupancy
  0    23     -3.49390    1.95485
  0    24     -3.35228    1.43644
  0    25     -3.28340    0.78252
  0    26     -3.20391    0.23182

  1    23     -3.62349    1.99655
  1    24     -3.50157    1.96114
  1    25     -3.34501    1.37576
  1    26     -3.15429    0.09270


Fermi level: -3.30550

No gap

Forces in eV/Ang:
  0 Li    0.00308    0.00432   -0.27479
  1 Li   -0.00219   -0.00212   -0.37483
  2 Li   -0.00230    0.01390   -0.36239
  3 Li   -0.00640   -0.00342   -0.27452
  4 Li    0.03625    0.00899   -0.32654
  5 Li   -0.00031   -0.00089   -0.28565
  6 Li    0.00297    0.01356   -0.31231
  7 Li   -0.00498    0.00193   -0.34034
  8 Li   -0.00912   -0.02253   -0.37971
  9 Li    0.18541   -0.04673    0.34944
 10 Li   -0.13644   -0.06396    0.35361
 11 Li    0.09929   -0.03996    0.53747
 12 Li   -0.10296   -0.04663    0.25722
 13 Li    0.11418   -0.04470    0.27418
 14 Li   -0.10550    0.15644    0.36074
 15 Li   -0.04624    0.06925    0.36701
 16 Li    0.07468   -0.02102    0.14185
 17 Li   -0.10947   -0.07896    0.36050
 18 Li    0.01453   -0.01826   -0.02294
 19 Li   -0.00020   -0.00830   -0.02111
 20 Li    0.00983    0.00690   -0.01804
 21 Li   -0.00079    0.02194   -0.00248
 22 Li   -0.00292    0.00956   -0.00210
 23 Li   -0.01050    0.01645    0.01855
 24 Li   -0.01402    0.03156    0.00121
 25 Li    0.00578    0.00981    0.00552
 26 Li   -0.00713   -0.01409   -0.00195
 27 Li    0.00882    0.00743    0.00155
 28 Li    0.01714    0.01039   -0.01577
 29 Li   -0.00201    0.02079   -0.05022
 30 Li   -0.00779   -0.00853    0.00557
 31 Li    0.00262    0.02703   -0.01257
 32 Li   -0.01027   -0.01382   -0.00843
 33 Li    0.00635    0.00166    0.02511
 34 Li    0.01498    0.02593   -0.00927
 35 Li   -0.00272   -0.01767   -0.00053
 36 N    -0.02226   -0.01345    0.01839
 37 N     0.01771   -0.01028    0.04258
 38 N     0.02596   -0.02742   -0.01203

System changes: positions 

Initializing position-dependent things.

Density initialized from wave functions
       .-----------------------.  
      /|                       |  
     / |                       |  
    /  |                       |  
   /   |                       |  
  /    |                       |  
 *     |                       |  
 |     |                       |  
 |     |                       |  
 |     |                       |  
 |     |                       |  
 |     |                       |  
 |     |                       |  
 |     |      Li      Li       |  
 |    Li                       |  
 |     | LiLi      Li     Li   |  
 |    N| Li   Li   Li     Li   |  
 | Li  |Li              Li     |  
 |     |         Li            |  
 |   LLi     LiLi    Li        |  
 |     |  Li     NLi      Li   |  
 | Li  |   Li      Li          |  
 |     |Li      Li      Li     |  
 Li    | Li      Li            |  
 |    Li      Li      Li       |  
 |     |                       |  
 |     |                       |  
 |     |                       |  
 |     |                       |  
 |     |                       |  
 |     |                       |  
 |     .-----------------------.  
 |    /                       /   
 |   /                       /    
 |  /                       /     
 | /                       /      
 |/                       /       
 *-----------------------*        

Positions:
   0 Li     1.617037    1.617037   10.000000    ( 0.0000,  0.0000,  0.0000)
   1 Li     4.851111    1.617037   10.000000    ( 0.0000,  0.0000,  0.0000)
   2 Li     8.085185    1.617037   10.000000    ( 0.0000,  0.0000,  0.0000)
   3 Li     1.617037    4.851111   10.000000    ( 0.0000,  0.0000,  0.0000)
   4 Li     4.851111    4.851111   10.000000    ( 0.0000,  0.0000,  0.0000)
   5 Li     8.085185    4.851111   10.000000    ( 0.0000,  0.0000,  0.0000)
   6 Li     1.617037    8.085185   10.000000    ( 0.0000,  0.0000,  0.0000)
   7 Li     4.851111    8.085185   10.000000    ( 0.0000,  0.0000,  0.0000)
   8 Li     8.085185    8.085185   10.000000    ( 0.0000,  0.0000,  0.0000)
   9 Li     0.000000    0.000000   11.617037    ( 0.0000,  0.0000,  0.0000)
  10 Li     3.234074    0.000000   11.617037    ( 0.0000,  0.0000,  0.0000)
  11 Li     6.468148    0.000000   11.617037    ( 0.0000,  0.0000,  0.0000)
  12 Li     0.000000    3.234074   11.617037    ( 0.0000,  0.0000,  0.0000)
  13 Li     3.234074    3.234074   11.617037    ( 0.0000,  0.0000,  0.0000)
  14 Li     6.468148    3.234074   11.617037    ( 0.0000,  0.0000,  0.0000)
  15 Li     0.000000    6.468148   11.617037    ( 0.0000,  0.0000,  0.0000)
  16 Li     3.234074    6.468148   11.617037    ( 0.0000,  0.0000,  0.0000)
  17 Li     6.468148    6.468148   11.617037    ( 0.0000,  0.0000,  0.0000)
  18 Li     1.673146    1.714488   13.693333    ( 0.0000,  0.0000,  0.0000)
  19 Li     5.143233    1.355366   13.508522    ( 0.0000,  0.0000,  0.0000)
  20 Li     7.844789    1.456463   13.516301    ( 0.0000,  0.0000,  0.0000)
  21 Li     1.483720    4.785871   13.479636    ( 0.0000,  0.0000,  0.0000)
  22 Li     4.097301    5.263425   14.065268    ( 0.0000,  0.0000,  0.0000)
  23 Li     7.969163    4.865738   13.511740    ( 0.0000,  0.0000,  0.0000)
  24 Li     2.129541    7.477282   13.938514    ( 0.0000,  0.0000,  0.0000)
  25 Li     5.224086    8.292414   13.589552    ( 0.0000,  0.0000,  0.0000)
  26 Li     7.974225    8.351844   13.589129    ( 0.0000,  0.0000,  0.0000)
  27 Li     0.542319    0.428684   15.733830    ( 0.0000,  0.0000,  0.0000)
  28 Li     3.111689    1.295714   15.984938    ( 0.0000,  0.0000,  0.0000)
  29 Li     6.401599    0.051351   15.487802    ( 0.0000,  0.0000,  0.0000)
  30 Li    -0.185593    3.011962   15.503531    ( 0.0000,  0.0000,  0.0000)
  31 Li     2.277004    3.868617   15.706346    ( 0.0000,  0.0000,  0.0000)
  32 Li     6.257894    3.486361   15.432709    ( 0.0000,  0.0000,  0.0000)
  33 Li     0.512587    6.191833   15.471511    ( 0.0000,  0.0000,  0.0000)
  34 Li     3.482446    6.631019   16.134334    ( 0.0000,  0.0000,  0.0000)
  35 Li     6.890655    6.453342   15.670020    ( 0.0000,  0.0000,  0.0000)
  36 N      1.453535    2.068621   15.536284    ( 0.0000,  0.0000,  0.0000)
  37 N      6.571818    9.705793   13.591993    ( 0.0000,  0.0000,  0.0000)
  38 N      2.326533    5.755357   14.913070    ( 0.0000,  0.0000,  0.0000)

Unit cell:
           periodic     x           y           z      points  spacing
  1. axis:    yes    9.702222    0.000000    0.000000    60     0.1617
  2. axis:    yes    0.000000    9.702222    0.000000    60     0.1617
  3. axis:    no     0.000000    0.000000   24.851111   156     0.1593

  Lengths:   9.702222   9.702222  24.851111
  Angles:   90.000000  90.000000  90.000000

Effective grid spacing dv^(1/3) = 0.1609

     iter     time        total  log10-change:
                         energy  eigst   dens
iter:   1 04:58:18  -252.001256  -2.17
iter:   2 05:02:03  -252.001569  -2.88  -2.71
iter:   3 05:07:23  -252.001496c -3.34  -2.85
iter:   4 05:12:48  -252.001286c -3.28  -2.90
Writing to output.gpw (mode='')

iter:   5 05:18:24  -252.001299c -3.83  -3.14
iter:   6 05:22:14  -252.001281c -3.86  -3.22
iter:   7 05:29:03  -252.001283c -3.62  -3.37
iter:   8 05:33:02  -252.001279c -4.38  -3.48
iter:   9 05:39:03  -252.001291c -4.50  -3.65
Writing to output.gpw (mode='')

iter:  10 05:43:08  -252.001286c -4.93  -3.81
iter:  11 05:48:04  -252.001289c -5.13  -3.80
iter:  12 05:52:26  -252.001290c -5.26  -3.82
iter:  13 05:57:03  -252.001295c -5.41  -3.94
iter:  14 06:02:48  -252.001292c -5.58  -3.99
Writing to output.gpw (mode='')

iter:  15 06:06:22  -252.001293c -5.84  -4.04c
iter:  16 06:10:04  -252.001293c -5.76  -4.06c
iter:  17 06:13:32  -252.001291c -5.68  -4.11c
iter:  18 06:17:45  -252.001291c -6.19  -4.23c
iter:  19 06:24:13  -252.001296c -6.04  -4.49c
Writing to output.gpw (mode='')

iter:  20 06:28:43  -252.001295c -6.64  -4.76c
iter:  21 06:33:55  -252.001295c -6.66  -4.83c
iter:  22 06:38:49  -252.001295c -6.95  -4.82c
iter:  23 06:42:43  -252.001295c -6.93  -4.89c
iter:  24 06:48:34  -252.001295c -6.96  -4.95c
Writing to output.gpw (mode='')

iter:  25 06:53:50  -252.001295c -7.23  -5.04c
iter:  26 06:58:05  -252.001295c -7.28  -5.16c
iter:  27 07:01:35  -252.001295c -7.40c -5.30c

Converged after 27 iterations.

Dipole moment: (-4.247024, -10.649170, 0.081793) |e|*Ang

Energy contributions relative to reference atoms: (reference = -11745.526041)

Kinetic:       +101.377903
Potential:      -87.674765
External:        +0.000000
XC:            -266.218998
Entropy (-ST):   -0.153038
Local:           +0.591085
--------------------------
Free energy:   -252.077814
Extrapolated:  -252.001295

Dipole-layer corrected work functions: 3.384253, 3.227019 eV

Showing only first 2 kpts
 Kpt  Band  Eigenvalues  Occupancy
  0    23     -3.49375    1.95459
  0    24     -3.35245    1.43669
  0    25     -3.28370    0.78411
  0    26     -3.20416    0.23228

  1    23     -3.62377    1.99656
  1    24     -3.50115    1.96071
  1    25     -3.34473    1.37220
  1    26     -3.15427    0.09242


Fermi level: -3.30564

No gap
Writing to output.gpw (mode='')


Forces in eV/Ang:
  0 Li    0.00287    0.00417   -0.27463
  1 Li   -0.00206   -0.00214   -0.37415
  2 Li   -0.00241    0.01413   -0.36259
  3 Li   -0.00640   -0.00331   -0.27479
  4 Li    0.03627    0.00894   -0.32682
  5 Li   -0.00037   -0.00082   -0.28565
  6 Li    0.00280    0.01363   -0.31236
  7 Li   -0.00483    0.00215   -0.34028
  8 Li   -0.00898   -0.02279   -0.37998
  9 Li    0.18416   -0.04824    0.34963
 10 Li   -0.13712   -0.06449    0.35140
 11 Li    0.10199   -0.04236    0.53899
 12 Li   -0.10327   -0.04463    0.25927
 13 Li    0.11459   -0.04498    0.27438
 14 Li   -0.10484    0.15846    0.36086
 15 Li   -0.04714    0.06903    0.36660
 16 Li    0.07369   -0.01960    0.14440
 17 Li   -0.11025   -0.07867    0.36067
 18 Li    0.01027   -0.00982   -0.00316
 19 Li    0.00497   -0.00722   -0.02001
 20 Li    0.00785    0.00096   -0.01496
 21 Li   -0.01018    0.01515   -0.01272
 22 Li    0.00434    0.00825   -0.00348
 23 Li   -0.00589    0.01175    0.01279
 24 Li   -0.01340    0.02099    0.00153
 25 Li    0.00559    0.00481    0.00247
 26 Li   -0.00130   -0.01097   -0.00192
 27 Li    0.00300   -0.00787    0.00493
 28 Li    0.00313    0.01551   -0.01751
 29 Li   -0.00053    0.02000   -0.01614
 30 Li   -0.01644   -0.00120    0.00289
 31 Li    0.00442    0.00961   -0.01006
 32 Li   -0.01074   -0.01473   -0.00863
 33 Li    0.02225   -0.00228    0.01180
 34 Li    0.00985    0.01874   -0.01762
 35 Li   -0.00372   -0.01351    0.00344
 36 N     0.02156   -0.00341   -0.00082
 37 N    -0.00048   -0.00340    0.00406
 38 N    -0.01079    0.02430    0.03458

Timing:                                      incl.     excl.
-------------------------------------------------------------------
Density initialized from wave functions:    24.416    24.415   0.1% |
 Symmetrize density:                         0.000     0.000   0.0% |
Forces:                                     37.307    37.307   0.1% |
Hamiltonian:                               915.924     0.001   0.0% |
 Atomic:                                     0.659     0.005   0.0% |
  XC Correction:                             0.655     0.655   0.0% |
 Calculate atomic Hamiltonians:              0.877     0.877   0.0% |
 Communicate:                                8.487     8.487   0.0% |
 Hartree integrate/restrict:                 0.488     0.488   0.0% |
 Initialize Hamiltonian:                     0.000     0.000   0.0% |
 Poisson:                                   17.899     7.275   0.0% |
  Communicate from 1D:                       1.516     1.516   0.0% |
  Communicate from 2D:                       4.592     4.592   0.0% |
  Communicate to 1D:                         0.211     0.211   0.0% |
  Communicate to 2D:                         2.472     2.472   0.0% |
  FFT 1D:                                    0.937     0.937   0.0% |
  FFT 2D:                                    0.897     0.897   0.0% |
 XC 3D grid:                               887.493    58.636   0.2% |
  VdW-DF integral:                         828.856     0.506   0.0% |
   Convolution:                              6.510     6.510   0.0% |
   FFT:                                      2.578     2.578   0.0% |
   gather:                                 716.804   716.804   1.9% ||
   hmm1:                                     2.139     2.139   0.0% |
   hmm2:                                     2.266     2.266   0.0% |
   iFFT:                                     3.511     3.511   0.0% |
   potential:                               85.159     0.339   0.0% |
    collect:                                 5.387     5.387   0.0% |
    p1:                                     11.704    11.704   0.0% |
    p2:                                      3.936     3.936   0.0% |
    sum:                                    63.793    63.793   0.2% |
   splines:                                  9.383     9.383   0.0% |
 vbar:                                       0.019     0.019   0.0% |
LCAO initialization:                         3.513     0.074   0.0% |
 LCAO eigensolver:                           1.738     0.001   0.0% |
  Calculate projections:                     0.000     0.000   0.0% |
  DenseAtomicCorrection:                     0.000     0.000   0.0% |
  Distribute overlap matrix:                 1.423     1.423   0.0% |
  Orbital Layouts:                           0.313     0.313   0.0% |
  Potential matrix:                          0.001     0.001   0.0% |
  Sum over cells:                            0.001     0.001   0.0% |
 LCAO to grid:                               1.125     1.125   0.0% |
 Set positions (LCAO WFS):                   0.575     0.444   0.0% |
  Basic WFS set positions:                   0.002     0.002   0.0% |
  Basis functions set positions:             0.000     0.000   0.0% |
  P tci:                                     0.001     0.001   0.0% |
  ST tci:                                    0.077     0.077   0.0% |
  mktci:                                     0.051     0.051   0.0% |
Redistribute:                                0.004     0.004   0.0% |
SCF-cycle:                               37477.948  1649.957   4.3% |-|
 Davidson:                                3904.939  1938.073   5.0% |-|
  Apply hamiltonian:                       305.569   305.569   0.8% |
  Subspace diag:                           421.820     0.044   0.0% |
   calc_h_matrix:                          310.533    29.242   0.1% |
    Apply hamiltonian:                     281.291   281.291   0.7% |
   diagonalize:                             44.358    44.358   0.1% |
   rotate_psi:                              66.885    66.885   0.2% |
  calc. matrices:                         1072.032   380.284   1.0% |
   Apply hamiltonian:                      691.748   691.748   1.8% ||
  diagonalize:                               1.073     1.073   0.0% |
  rotate_psi:                              166.372   166.372   0.4% |
 Density:                                  146.538     0.006   0.0% |
  Atomic density matrices:                  33.727    33.727   0.1% |
  Mix:                                      37.687    37.687   0.1% |
  Multipole moments:                         3.319     3.319   0.0% |
  Pseudo density:                           71.799    71.780   0.2% |
   Symmetrize density:                       0.019     0.019   0.0% |
 Hamiltonian:                            31771.133     0.065   0.0% |
  Atomic:                                   25.226     0.396   0.0% |
   XC Correction:                           24.830    24.830   0.1% |
  Calculate atomic Hamiltonians:            26.078    26.078   0.1% |
  Communicate:                             307.148   307.148   0.8% |
  Hartree integrate/restrict:               24.924    24.924   0.1% |
  Poisson:                                 547.838   240.935   0.6% |
   Communicate from 1D:                     51.853    51.853   0.1% |
   Communicate from 2D:                    104.985   104.985   0.3% |
   Communicate to 1D:                        7.538     7.538   0.0% |
   Communicate to 2D:                       75.879    75.879   0.2% |
   FFT 1D:                                  35.255    35.255   0.1% |
   FFT 2D:                                  31.392    31.392   0.1% |
  XC 3D grid:                            30838.934  1833.922   4.8% |-|
   VdW-DF integral:                      29005.012    20.971   0.1% |
    Convolution:                           264.814   264.814   0.7% |
    FFT:                                   110.461   110.461   0.3% |
    gather:                              25657.070 25657.070  66.6% |--------------------------|
    hmm1:                                   92.117    92.117   0.2% |
    hmm2:                                   93.321    93.321   0.2% |
    iFFT:                                  120.216   120.216   0.3% |
    potential:                            2646.040    11.441   0.0% |
     collect:                              362.442   362.442   0.9% |
     p1:                                   416.385   416.385   1.1% |
     p2:                                   135.309   135.309   0.4% |
     sum:                                 1720.463  1720.463   4.5% |-|
    splines:                                 0.002     0.002   0.0% |
  vbar:                                      0.919     0.919   0.0% |
 Orthonormalize:                             5.382     0.001   0.0% |
  calc_s_matrix:                             0.562     0.562   0.0% |
  inverse-cholesky:                          3.796     3.796   0.0% |
  projections:                               0.000     0.000   0.0% |
  rotate_psi_s:                              1.023     1.023   0.0% |
Set symmetry:                                0.003     0.003   0.0% |
Other:                                      59.611    59.611   0.2% |
-------------------------------------------------------------------
Total:                                             38518.725 100.0%

Memory usage: 1.35 GiB
Date: Sun Jan 29 07:01:41 2023
