
  ___ ___ ___ _ _ _  
 |   |   |_  | | | | 
 | | | | | . | | | | 
 |__ |  _|___|_____|  22.8.0
 |___|_|             

User:   vazumah@f011
Date:   Wed Feb  1 14:52:12 2023
Arch:   x86_64
Pid:    41496
CWD:    /home/vazumah/Python_Projects/Li_NRR/Li_adsorb_studies/autocat/adsorbates/N1/ontop/9.702_9.702
Python: 3.10.6
gpaw:   /home/vazumah/anaconda3/envs/NAME/lib/python3.10/site-packages/gpaw
_gpaw:  /home/vazumah/anaconda3/envs/NAME/lib/python3.10/site-packages/
        _gpaw.cpython-310-x86_64-linux-gnu.so
ase:    /home/vazumah/anaconda3/envs/NAME/lib/python3.10/site-packages/ase (version 3.22.1)
numpy:  /home/vazumah/anaconda3/envs/NAME/lib/python3.10/site-packages/numpy (version 1.23.3)
scipy:  /home/vazumah/anaconda3/envs/NAME/lib/python3.10/site-packages/scipy (version 1.9.1)
libxc:  5.2.3
units:  Angstrom and eV
cores: 32
OpenMP: True
OMP_NUM_THREADS: 1

Input parameters:
  h: 0.16
  kpts: {size: [6, 6, 1]}
  occupations: {name: fermi-dirac,
                width: 0.05}
  poissonsolver: {dipolelayer: xy}
  symmetry: {point_group: False}
  xc: RPBE

System changes: positions, numbers, cell, pbc, initial_charges, initial_magmoms 

Initialize ...

species:
  Li:
    name: Lithium
    id: dcbe5181e2282205f1343ba35d013394
    Z: 3.0
    valence: 1
    core: 2
    charge: 0.0
    file: /home/vazumah/anaconda3/envs/NAME/share/gpaw/Li.RPBE.gz
    compensation charges: {type: gauss,
                           rc: 0.33,
                           lmax: 2}
    cutoffs: {filter: 1.91,
              core: 2.55}
    valence states:
      #              energy  rcut
      - 2s(1.00)    -2.901   1.058
      - 2p(0.00)    -1.114   1.058
      -  s          24.311   1.058
  
    # Using partial waves for Li as LCAO basis

  N:
    name: Nitrogen
    id: ee8436d228dc42b9589ef0e60c8ce05c
    Z: 7.0
    valence: 5
    core: 2
    charge: 0.0
    file: /home/vazumah/anaconda3/envs/NAME/share/gpaw/N.RPBE.gz
    compensation charges: {type: gauss,
                           rc: 0.18,
                           lmax: 2}
    cutoffs: {filter: 1.11,
              core: 0.96}
    valence states:
      #              energy  rcut
      - 2s(2.00)   -18.658   0.603
      - 2p(3.00)    -7.050   0.529
      -  s           8.553   0.603
      -  p          20.161   0.529
      -  d           0.000   0.577
  
    # Using partial waves for N as LCAO basis

Reference energy: -8815.035974  # eV

Spin-paired calculation

Convergence criteria:
 Maximum [total energy] change in last 3 cyles: 0.0005 eV / electron
 Maximum integral of absolute [dens]ity change: 0.0001 electrons / valence electron
 Maximum integral of absolute [eigenst]ate change: 4e-08 eV^2 / valence electron
 Maximum number of scf [iter]ations: 333
 (Square brackets indicate name in SCF output, whereas a 'c' in
 the SCF output indicates the quantity has converged.)

Symmetries present (total): 1

  ( 1  0  0)
  ( 0  1  0)
  ( 0  0  1)

36 k-points: 6 x 6 x 1 Monkhorst-Pack grid
18 k-points in the irreducible part of the Brillouin zone
       k-points in crystal coordinates                weights
   0:     0.08333333   -0.41666667    0.00000000          2/36
   1:     0.08333333   -0.25000000    0.00000000          2/36
   2:     0.08333333   -0.08333333    0.00000000          2/36
   3:     0.08333333    0.08333333    0.00000000          2/36
   4:     0.08333333    0.25000000    0.00000000          2/36
   5:     0.08333333    0.41666667    0.00000000          2/36
   6:     0.25000000   -0.41666667    0.00000000          2/36
   7:     0.25000000   -0.25000000    0.00000000          2/36
   8:     0.25000000   -0.08333333    0.00000000          2/36
   9:     0.25000000    0.08333333    0.00000000          2/36
          ...
  17:     0.41666667    0.41666667    0.00000000          2/36

Wave functions: Uniform real-space grid
  Kinetic energy operator: 6*3+1=19 point O(h^6) finite-difference Laplacian
  ScaLapack parameters: grid=1x1, blocksize=None
  Wavefunction extrapolation:
    Improved wavefunction reuse through dual PAW basis 

Occupation numbers: Fermi-Dirac:
  width: 0.0500  # eV
 

Eigensolver
   Davidson(niter=2) 

Densities:
  Coarse grid: 60*60*156 grid
  Fine grid: 120*120*312 grid
  Total Charge: 0.000000 

Density mixing:
  Method: separate
  Backend: pulay
  Linear mixing parameter: 0.05
  old densities: 5
  Damping of long wavelength oscillations: 50 

Hamiltonian:
  XC and Coulomb potentials evaluated on a 120*120*312 grid
  Using the RPBE Exchange-Correlation functional
  Interpolation: tri-quintic (5. degree polynomial)
  Poisson solver: FastPoissonSolver using
    Stencil: 6*3+1=19 point O(h^6) finite-difference Laplacian
    FFT axes: [0, 1]
    FST axes: [2]

Dipole correction along z-axis 

XC parameters: RPBE with 2 nearest neighbor stencil

Memory estimate:
  Process memory now: 125.03 MiB
  Calculator: 181.79 MiB
    Density: 21.61 MiB
      Arrays: 6.87 MiB
      Localized functions: 12.13 MiB
      Mixer: 2.61 MiB
    Hamiltonian: 5.45 MiB
      Arrays: 4.49 MiB
      XC: 0.00 MiB
      Poisson: 0.00 MiB
      vbar: 0.96 MiB
    Wavefunctions: 154.73 MiB
      Arrays psit_nG: 136.20 MiB
      Eigensolver: 17.87 MiB
      Projections: 0.05 MiB
      Projectors: 0.61 MiB

Total number of cores used: 32
Parallelization over k-points: 2
Domain decomposition: 2 x 2 x 4

Number of atoms: 37
Number of atomic orbitals: 148
Number of bands in calculation: 29
Number of valence electrons: 41
Bands to converge: occupied

... initialized

Initializing position-dependent things.

Density initialized from atomic densities
Creating initial wave functions:
  29 bands from LCAO basis set

       .-----------------------.  
      /|                       |  
     / |                       |  
    /  |                       |  
   /   |                       |  
  /    |                       |  
 *     |                       |  
 |     |                       |  
 |     |                       |  
 |     |                       |  
 |     |                       |  
 |     |                       |  
 |    Li                       |  
 |     |                       |  
 |     |     Li      Li        |  
 |     |  Li      Li     Li    |  
 |Li   |   Li      Li          |  
 N    LiLi      Li  Li  Li     |  
 |     |                       |  
 Li  LiLi    LLi     LLi       |  
 |     |  Li      Li      Li   |  
 | Li  |   Li      Li          |  
 |     |Li      Li      Li     |  
 Li    | Li      Li            |  
 |    Li      Li      Li       |  
 |     |                       |  
 |     |                       |  
 |     |                       |  
 |     |                       |  
 |     |                       |  
 |     |                       |  
 |     .-----------------------.  
 |    /                       /   
 |   /                       /    
 |  /                       /     
 | /                       /      
 |/                       /       
 *-----------------------*        

Positions:
   0 Li     1.617037    1.617037   10.000000    ( 0.0000,  0.0000,  0.0000)
   1 Li     4.851111    1.617037   10.000000    ( 0.0000,  0.0000,  0.0000)
   2 Li     8.085185    1.617037   10.000000    ( 0.0000,  0.0000,  0.0000)
   3 Li     1.617037    4.851111   10.000000    ( 0.0000,  0.0000,  0.0000)
   4 Li     4.851111    4.851111   10.000000    ( 0.0000,  0.0000,  0.0000)
   5 Li     8.085185    4.851111   10.000000    ( 0.0000,  0.0000,  0.0000)
   6 Li     1.617037    8.085185   10.000000    ( 0.0000,  0.0000,  0.0000)
   7 Li     4.851111    8.085185   10.000000    ( 0.0000,  0.0000,  0.0000)
   8 Li     8.085185    8.085185   10.000000    ( 0.0000,  0.0000,  0.0000)
   9 Li     0.000000    0.000000   11.617037    ( 0.0000,  0.0000,  0.0000)
  10 Li     3.234074    0.000000   11.617037    ( 0.0000,  0.0000,  0.0000)
  11 Li     6.468148    0.000000   11.617037    ( 0.0000,  0.0000,  0.0000)
  12 Li     0.000000    3.234074   11.617037    ( 0.0000,  0.0000,  0.0000)
  13 Li     3.234074    3.234074   11.617037    ( 0.0000,  0.0000,  0.0000)
  14 Li     6.468148    3.234074   11.617037    ( 0.0000,  0.0000,  0.0000)
  15 Li     0.000000    6.468148   11.617037    ( 0.0000,  0.0000,  0.0000)
  16 Li     3.234074    6.468148   11.617037    ( 0.0000,  0.0000,  0.0000)
  17 Li     6.468148    6.468148   11.617037    ( 0.0000,  0.0000,  0.0000)
  18 Li     1.816736    1.816736   13.444146    ( 0.0000,  0.0000,  0.0000)
  19 Li     4.851111    1.488057   13.703519    ( 0.0000,  0.0000,  0.0000)
  20 Li     7.885486    1.816736   13.444146    ( 0.0000,  0.0000,  0.0000)
  21 Li     1.488057    4.851111   13.703519    ( 0.0000,  0.0000,  0.0000)
  22 Li     4.851111    4.851111   13.518882    ( 0.0000,  0.0000,  0.0000)
  23 Li     8.214165    4.851111   13.703519    ( 0.0000,  0.0000,  0.0000)
  24 Li     1.816736    7.885486   13.444146    ( 0.0000,  0.0000,  0.0000)
  25 Li     4.851111    8.214165   13.703519    ( 0.0000,  0.0000,  0.0000)
  26 Li     7.885486    7.885486   13.444146    ( 0.0000,  0.0000,  0.0000)
  27 Li    -0.000000   -0.000000   14.078360    ( 0.0000,  0.0000,  0.0000)
  28 Li     1.922644    0.000000   15.967921    ( 0.0000,  0.0000,  0.0000)
  29 Li     7.779578    0.000000   15.967921    ( 0.0000,  0.0000,  0.0000)
  30 Li     0.000000    1.922644   15.967921    ( 0.0000,  0.0000,  0.0000)
  31 Li     3.307403    3.307403   15.539733    ( 0.0000,  0.0000,  0.0000)
  32 Li     6.394819    3.307403   15.539733    ( 0.0000,  0.0000,  0.0000)
  33 Li    -0.000000    7.779578   15.967921    ( 0.0000,  0.0000,  0.0000)
  34 Li     3.307403    6.394819   15.539733    ( 0.0000,  0.0000,  0.0000)
  35 Li     6.394819    6.394819   15.539733    ( 0.0000,  0.0000,  0.0000)
  36 N      9.702222    9.702222   15.910779    ( 0.0000,  0.0000,  0.0000)

Unit cell:
           periodic     x           y           z      points  spacing
  1. axis:    yes    9.702222    0.000000    0.000000    60     0.1617
  2. axis:    yes    0.000000    9.702222    0.000000    60     0.1617
  3. axis:    no     0.000000    0.000000   24.851111   156     0.1593

  Lengths:   9.702222   9.702222  24.851111
  Angles:   90.000000  90.000000  90.000000

Effective grid spacing dv^(1/3) = 0.1609

     iter     time        total  log10-change:
                         energy  eigst   dens
iter:   1 14:52:50   -77.537139
iter:   2 14:53:23   -70.435560  +0.97  -0.44
iter:   3 14:53:47   -68.469672  +1.22  -0.55
iter:   4 14:54:13   -66.264407  +1.68  -0.62
iter:   5 14:54:39   -66.667415  +1.03  -0.91
iter:   6 14:55:06   -66.964339  +0.20  -0.95
iter:   7 14:55:33   -66.823933  +0.37  -1.02
iter:   8 14:55:58   -66.758177  +0.24  -1.19
iter:   9 14:56:24   -67.304910  +0.89  -1.35
iter:  10 14:56:50   -66.894655  -0.01  -1.22
iter:  11 14:57:19   -66.899378  -0.76  -1.53
iter:  12 14:57:46   -66.908939c -0.68  -1.59
iter:  13 14:58:36   -66.903045c -1.00  -1.65
iter:  14 14:59:04   -66.909007c -0.66  -1.75
iter:  15 14:59:32   -66.909383c -1.27  -1.93
iter:  16 14:59:59   -66.911966c -1.51  -2.03
iter:  17 15:00:45   -66.914140c -1.47  -2.06
iter:  18 15:01:12   -66.917319c -1.55  -2.18
iter:  19 15:01:37   -66.920048c -1.72  -2.29
iter:  20 15:02:12   -66.920460c -1.94  -2.42
iter:  21 15:02:45   -66.921467c -1.91  -2.48
iter:  22 15:03:13   -66.922679c -1.84  -2.52
iter:  23 15:03:39   -66.923301c -2.27  -2.62
iter:  24 15:04:04   -66.924156c -2.22  -2.59
iter:  25 15:04:29   -66.924575c -2.33  -2.55
iter:  26 15:04:55   -66.924890c -2.54  -2.60
iter:  27 15:05:19   -66.925225c -2.54  -2.65
iter:  28 15:05:45   -66.925482c -2.53  -2.68
iter:  29 15:06:11   -66.925704c -2.75  -2.75
iter:  30 15:06:36   -66.925898c -2.76  -2.77
iter:  31 15:07:14   -66.926122c -3.08  -2.84
iter:  32 15:07:47   -66.926242c -3.18  -3.16
iter:  33 15:08:11   -66.926336c -3.08  -3.17
iter:  34 15:08:36   -66.926446c -3.19  -3.21
iter:  35 15:09:02   -66.926534c -3.24  -3.46
iter:  36 15:09:29   -66.926597c -3.31  -3.58
iter:  37 15:10:23   -66.926660c -3.27  -3.67
iter:  38 15:11:19   -66.926704c -3.47  -3.90
iter:  39 15:12:31   -66.926740c -3.54  -3.95
iter:  40 15:14:05   -66.926781c -3.47  -3.93
iter:  41 15:14:55   -66.926806c -3.61  -3.73
iter:  42 15:16:47   -66.926837c -3.34  -3.79
iter:  43 15:17:41   -66.926858c -3.67  -3.96
iter:  44 15:18:20   -66.926880c -3.63  -3.90
iter:  45 15:19:16   -66.926892c -3.84  -3.81
iter:  46 15:20:13   -66.926908c -3.92  -3.81
iter:  47 15:20:56   -66.926915c -4.24  -3.67
iter:  48 15:22:13   -66.926922c -4.03  -3.66
iter:  49 15:23:38   -66.926924c -3.88  -3.64
iter:  50 15:24:39   -66.926928c -4.14  -3.75
iter:  51 15:25:22   -66.926928c -3.99  -3.76
iter:  52 15:26:10   -66.926934c -4.45  -3.77
iter:  53 15:26:58   -66.926931c -4.30  -3.62
iter:  54 15:28:15   -66.926933c -4.64  -3.83
iter:  55 15:29:29   -66.926933c -4.28  -3.78
iter:  56 15:30:15   -66.926932c -4.56  -3.87
iter:  57 15:32:19   -66.926931c -4.41  -3.89
iter:  58 15:33:27   -66.926929c -4.63  -3.88
iter:  59 15:34:08   -66.926927c -4.49  -3.91
iter:  60 15:35:29   -66.926930c -4.79  -3.97
iter:  61 15:36:42   -66.926925c -4.70  -3.90
iter:  62 15:38:30   -66.926925c -4.88  -4.29c
iter:  63 15:39:30   -66.926924c -5.07  -4.35c
iter:  64 15:40:13   -66.926924c -4.87  -4.42c
iter:  65 15:40:51   -66.926922c -5.02  -4.46c
iter:  66 15:42:08   -66.926922c -5.19  -4.63c
iter:  67 15:43:49   -66.926922c -5.02  -4.74c
iter:  68 15:44:35   -66.926921c -5.03  -4.86c
iter:  69 15:45:22   -66.926920c -5.05  -4.87c
iter:  70 15:46:10   -66.926919c -4.84  -4.86c
iter:  71 15:47:37   -66.926919c -4.97  -5.02c
iter:  72 15:48:29   -66.926918c -5.07  -5.04c
iter:  73 15:50:37   -66.926917c -5.04  -5.08c
iter:  74 15:51:49   -66.926916c -5.00  -5.13c
iter:  75 15:52:48   -66.926916c -5.28  -5.23c
iter:  76 15:53:34   -66.926916c -5.32  -5.32c
iter:  77 15:54:29   -66.926915c -5.17  -5.36c
iter:  78 15:55:58   -66.926914c -5.26  -5.49c
iter:  79 15:58:56   -66.926914c -5.29  -5.61c
iter:  80 16:02:50   -66.926914c -5.40  -5.60c
iter:  81 16:06:05   -66.926913c -5.19  -5.44c
iter:  82 16:08:58   -66.926913c -5.32  -5.40c
iter:  83 16:12:03   -66.926912c -5.40  -5.35c
iter:  84 16:15:24   -66.926912c -5.38  -5.26c
iter:  85 16:19:51   -66.926912c -5.50  -5.30c
iter:  86 16:24:57   -66.926911c -5.50  -5.30c
iter:  87 16:30:20   -66.926911c -5.50  -5.23c
iter:  88 16:35:04   -66.926911c -5.50  -5.22c
iter:  89 16:39:44   -66.926911c -5.60  -5.14c
iter:  90 16:43:49   -66.926910c -5.60  -5.12c
iter:  91 16:48:57   -66.926910c -5.82  -5.12c
iter:  92 16:53:43   -66.926910c -5.60  -5.02c
iter:  93 16:58:24   -66.926910c -5.85  -5.16c
iter:  94 17:04:11   -66.926909c -5.65  -5.02c
iter:  95 17:09:57   -66.926909c -5.81  -5.12c
iter:  96 17:15:24   -66.926909c -5.66  -5.07c
iter:  97 17:21:25   -66.926909c -6.06  -5.25c
iter:  98 17:26:28   -66.926908c -5.64  -5.06c
iter:  99 17:32:38   -66.926908c -5.71  -5.34c
iter: 100 17:38:48   -66.926908c -5.79  -5.48c
iter: 101 17:43:57   -66.926907c -5.94  -5.59c
iter: 102 17:50:16   -66.926907c -5.92  -5.59c
iter: 103 17:55:25   -66.926907c -5.88  -5.66c
iter: 104 17:59:07   -66.926907c -6.04  -5.74c
iter: 105 18:03:05   -66.926907c -6.10  -5.83c
iter: 106 18:07:42   -66.926907c -6.02  -5.92c
iter: 107 18:11:33   -66.926906c -5.86  -5.96c
iter: 108 18:14:58   -66.926906c -6.12  -6.02c
iter: 109 18:18:18   -66.926906c -5.91  -6.02c
iter: 110 18:21:31   -66.926906c -6.11  -5.95c
iter: 111 18:24:58   -66.926906c -6.08  -5.88c
iter: 112 18:29:04   -66.926906c -6.17  -5.85c
iter: 113 18:33:27   -66.926906c -6.18  -5.89c
iter: 114 18:37:25   -66.926906c -6.12  -5.92c
iter: 115 18:40:41   -66.926905c -6.18  -5.99c
iter: 116 18:44:06   -66.926905c -6.50  -6.30c
iter: 117 18:46:51   -66.926905c -6.56  -6.33c
iter: 118 18:50:43   -66.926905c -6.40  -6.25c
iter: 119 18:55:24   -66.926905c -6.83  -6.02c
iter: 120 18:59:12   -66.926905c -6.50  -6.00c
iter: 121 19:02:41   -66.926905c -6.63  -6.18c
iter: 122 19:06:09   -66.926905c -6.52  -6.24c
iter: 123 19:09:38   -66.926905c -6.59  -6.37c
iter: 124 19:13:07   -66.926905c -6.45  -6.15c
iter: 125 19:17:06   -66.926905c -6.78  -6.34c
iter: 126 19:21:04   -66.926905c -6.88  -6.17c
iter: 127 19:24:29   -66.926905c -6.61  -6.08c
iter: 128 19:28:59   -66.926905c -6.97  -6.24c
iter: 129 19:32:46   -66.926905c -6.53  -5.93c
iter: 130 19:36:40   -66.926905c -6.81  -6.36c
iter: 131 19:41:22   -66.926905c -6.85  -6.56c
iter: 132 19:46:53   -66.926905c -6.91  -6.59c
iter: 133 19:52:12   -66.926905c -6.95  -6.52c
iter: 134 19:57:40   -66.926905c -6.98  -6.45c
iter: 135 20:03:13   -66.926904c -6.98  -6.40c
iter: 136 20:08:08   -66.926904c -6.86  -6.24c
iter: 137 20:13:23   -66.926904c -7.09  -6.13c
iter: 138 20:17:41   -66.926904c -7.06  -6.08c
iter: 139 20:22:54   -66.926904c -7.08  -6.24c
iter: 140 20:28:55   -66.926904c -6.99  -6.35c
iter: 141 20:34:19   -66.926904c -7.19  -6.57c
iter: 142 20:39:37   -66.926904c -7.23  -6.55c
iter: 143 20:44:56   -66.926904c -7.21  -6.49c
iter: 144 20:49:29   -66.926904c -7.31  -6.27c
iter: 145 20:54:19   -66.926904c -7.34  -6.16c
iter: 146 20:57:55   -66.926904c -7.13  -6.28c
iter: 147 21:02:19   -66.926904c -7.14  -6.38c
iter: 148 21:06:37   -66.926904c -7.12  -6.50c
iter: 149 21:10:27   -66.926904c -7.38  -6.58c
iter: 150 21:15:09   -66.926904c -7.33  -6.77c
iter: 151 21:19:19   -66.926904c -7.50c -7.02c

Converged after 151 iterations.

Dipole moment: (-6.927974, -6.927974, 0.086862) |e|*Ang

Energy contributions relative to reference atoms: (reference = -8815.035974)

Kinetic:        +75.120053
Potential:      -63.307352
External:        +0.000000
XC:             -78.725968
Entropy (-ST):   -0.128403
Local:           +0.050564
--------------------------
Free energy:    -66.991106
Extrapolated:   -66.926904

Dipole-layer corrected work functions: 3.170198, 3.003219 eV

Showing only first 2 kpts
 Kpt  Band  Eigenvalues  Occupancy
  0    18     -3.36853    1.99289
  0    19     -3.17273    1.69639
  0    20     -3.06813    0.81636
  0    21     -2.97244    0.18468

  1    18     -3.35343    1.99040
  1    19     -3.25409    1.93206
  1    20     -3.19114    1.77960
  1    21     -2.94119    0.10329


Fermi level: -3.08671

No gap

Forces in eV/Ang:
  0 Li   -0.01653   -0.01653   -0.36817
  1 Li   -0.00000    0.00284   -0.32773
  2 Li    0.01653   -0.01653   -0.36817
  3 Li    0.00284    0.00000   -0.32773
  4 Li   -0.00000   -0.00000   -0.39596
  5 Li   -0.00284   -0.00000   -0.32773
  6 Li   -0.01653    0.01653   -0.36817
  7 Li   -0.00000   -0.00284   -0.32773
  8 Li    0.01653    0.01653   -0.36817
  9 Li   -0.00000   -0.00000   -0.20904
 10 Li   -0.03238   -0.00000    0.30150
 11 Li    0.03238    0.00000    0.30150
 12 Li   -0.00000   -0.03238    0.30150
 13 Li    0.11182    0.11182    0.29621
 14 Li   -0.11182    0.11182    0.29621
 15 Li    0.00000    0.03238    0.30150
 16 Li    0.11182   -0.11182    0.29621
 17 Li   -0.11182   -0.11182    0.29621
 18 Li   -0.02319   -0.02319    0.04745
 19 Li    0.00000    0.01099    0.04482
 20 Li    0.02319   -0.02319    0.04745
 21 Li    0.01099   -0.00000    0.04482
 22 Li   -0.00000   -0.00000    0.01276
 23 Li   -0.01099   -0.00000    0.04482
 24 Li   -0.02319    0.02319    0.04745
 25 Li   -0.00000   -0.01099    0.04482
 26 Li    0.02319    0.02319    0.04745
 27 Li   -0.00000    0.00000    0.00174
 28 Li    0.12240    0.00000    0.02894
 29 Li   -0.12240    0.00000    0.02894
 30 Li   -0.00000    0.12240    0.02894
 31 Li   -0.00711   -0.00711    0.07020
 32 Li    0.00711   -0.00711    0.07020
 33 Li   -0.00000   -0.12240    0.02894
 34 Li   -0.00711    0.00711    0.07020
 35 Li    0.00711    0.00711    0.07020
 36 N    -0.00000   -0.00000    0.15021

System changes: positions 

Initializing position-dependent things.

Density initialized from wave functions
       .-----------------------.  
      /|                       |  
     / |                       |  
    /  |                       |  
   /   |                       |  
  /    |                       |  
 *     |                       |  
 |     |                       |  
 |     |                       |  
 |     |                       |  
 |     |                       |  
 |     |                       |  
 |    Li                       |  
 |     |                       |  
 |     |     Li      Li        |  
 |     |  Li      Li     Li    |  
 |Li   |   Li      Li          |  
 |    LiLi      Li  Li  LN     |  
 |     |                       |  
 Li  LiLi    LLi     LLi       |  
 |     |  Li      Li      Li   |  
 | Li  |   Li      Li          |  
 |     |Li      Li      Li     |  
 Li    | Li      Li            |  
 |    Li      Li      Li       |  
 |     |                       |  
 |     |                       |  
 |     |                       |  
 |     |                       |  
 |     |                       |  
 |     |                       |  
 |     .-----------------------.  
 |    /                       /   
 |   /                       /    
 |  /                       /     
 | /                       /      
 |/                       /       
 *-----------------------*        

Positions:
   0 Li     1.617037    1.617037   10.000000    ( 0.0000,  0.0000,  0.0000)
   1 Li     4.851111    1.617037   10.000000    ( 0.0000,  0.0000,  0.0000)
   2 Li     8.085185    1.617037   10.000000    ( 0.0000,  0.0000,  0.0000)
   3 Li     1.617037    4.851111   10.000000    ( 0.0000,  0.0000,  0.0000)
   4 Li     4.851111    4.851111   10.000000    ( 0.0000,  0.0000,  0.0000)
   5 Li     8.085185    4.851111   10.000000    ( 0.0000,  0.0000,  0.0000)
   6 Li     1.617037    8.085185   10.000000    ( 0.0000,  0.0000,  0.0000)
   7 Li     4.851111    8.085185   10.000000    ( 0.0000,  0.0000,  0.0000)
   8 Li     8.085185    8.085185   10.000000    ( 0.0000,  0.0000,  0.0000)
   9 Li     0.000000    0.000000   11.617037    ( 0.0000,  0.0000,  0.0000)
  10 Li     3.234074    0.000000   11.617037    ( 0.0000,  0.0000,  0.0000)
  11 Li     6.468148    0.000000   11.617037    ( 0.0000,  0.0000,  0.0000)
  12 Li     0.000000    3.234074   11.617037    ( 0.0000,  0.0000,  0.0000)
  13 Li     3.234074    3.234074   11.617037    ( 0.0000,  0.0000,  0.0000)
  14 Li     6.468148    3.234074   11.617037    ( 0.0000,  0.0000,  0.0000)
  15 Li     0.000000    6.468148   11.617037    ( 0.0000,  0.0000,  0.0000)
  16 Li     3.234074    6.468148   11.617037    ( 0.0000,  0.0000,  0.0000)
  17 Li     6.468148    6.468148   11.617037    ( 0.0000,  0.0000,  0.0000)
  18 Li     1.816736    1.816736   13.444146    ( 0.0000,  0.0000,  0.0000)
  19 Li     4.851111    1.488057   13.703519    ( 0.0000,  0.0000,  0.0000)
  20 Li     7.885486    1.816736   13.444146    ( 0.0000,  0.0000,  0.0000)
  21 Li     1.488057    4.851111   13.703519    ( 0.0000,  0.0000,  0.0000)
  22 Li     4.851111    4.851111   13.518882    ( 0.0000,  0.0000,  0.0000)
  23 Li     8.214165    4.851111   13.703519    ( 0.0000,  0.0000,  0.0000)
  24 Li     1.816736    7.885486   13.444146    ( 0.0000,  0.0000,  0.0000)
  25 Li     4.851111    8.214165   13.703519    ( 0.0000,  0.0000,  0.0000)
  26 Li     7.885486    7.885486   13.444146    ( 0.0000,  0.0000,  0.0000)
  27 Li    -0.000000   -0.000000   14.078360    ( 0.0000,  0.0000,  0.0000)
  28 Li     1.922644    0.000000   15.967921    ( 0.0000,  0.0000,  0.0000)
  29 Li     7.779578    0.000000   15.967921    ( 0.0000,  0.0000,  0.0000)
  30 Li     0.000000    1.922644   15.967921    ( 0.0000,  0.0000,  0.0000)
  31 Li     3.307403    3.307403   15.539733    ( 0.0000,  0.0000,  0.0000)
  32 Li     6.394819    3.307403   15.539733    ( 0.0000,  0.0000,  0.0000)
  33 Li    -0.000000    7.779578   15.967921    ( 0.0000,  0.0000,  0.0000)
  34 Li     3.307403    6.394819   15.539733    ( 0.0000,  0.0000,  0.0000)
  35 Li     6.394819    6.394819   15.539733    ( 0.0000,  0.0000,  0.0000)
  36 N      9.692222    9.702222   15.910779    ( 0.0000,  0.0000,  0.0000)

Unit cell:
           periodic     x           y           z      points  spacing
  1. axis:    yes    9.702222    0.000000    0.000000    60     0.1617
  2. axis:    yes    0.000000    9.702222    0.000000    60     0.1617
  3. axis:    no     0.000000    0.000000   24.851111   156     0.1593

  Lengths:   9.702222   9.702222  24.851111
  Angles:   90.000000  90.000000  90.000000

Effective grid spacing dv^(1/3) = 0.1609

     iter     time        total  log10-change:
                         energy  eigst   dens
iter:   1 21:24:26   -66.926851  -2.72
iter:   2 21:29:08   -66.926731  -3.58  -2.74
iter:   3 21:34:53   -66.926482c -3.14  -2.85
iter:   4 21:39:12   -66.926456c -3.82  -3.00
iter:   5 21:44:51   -66.926443c -3.32  -3.28
iter:   6 21:50:22   -66.926444c -3.55  -3.19
iter:   7 21:54:12   -66.926442c -4.11  -3.34
iter:   8 21:58:53   -66.926427c -4.51  -3.26
iter:   9 22:02:53   -66.926421c -4.67  -3.68
iter:  10 22:07:27   -66.926424c -4.52  -3.77
iter:  11 22:12:46   -66.926420c -5.33  -3.82
iter:  12 22:18:31   -66.926421c -5.95  -4.18c
iter:  13 22:24:44   -66.926421c -6.16  -4.18c
iter:  14 22:29:20   -66.926420c -5.64  -4.22c
iter:  15 22:32:56   -66.926420c -6.46  -4.51c
iter:  16 22:36:44   -66.926421c -6.61  -4.80c
iter:  17 22:41:44   -66.926420c -6.54  -4.82c
iter:  18 22:47:44   -66.926420c -6.89  -4.85c
iter:  19 22:52:58   -66.926420c -6.91  -4.92c
iter:  20 22:58:28   -66.926420c -7.01  -5.07c
iter:  21 23:03:41   -66.926420c -7.10  -5.14c
iter:  22 23:09:46   -66.926420c -7.15  -5.25c
iter:  23 23:14:46   -66.926420c -7.33  -5.40c
iter:  24 23:20:57   -66.926420c -7.55c -5.46c

Converged after 24 iterations.

Dipole moment: (-5.928364, -6.927974, 0.086864) |e|*Ang

Energy contributions relative to reference atoms: (reference = -8815.035974)

Kinetic:        +75.123198
Potential:      -63.309464
External:        +0.000000
XC:             -78.726377
Entropy (-ST):   -0.128405
Local:           +0.050426
--------------------------
Free energy:    -66.990623
Extrapolated:   -66.926420

Dipole-layer corrected work functions: 3.170200, 3.003218 eV

Showing only first 2 kpts
 Kpt  Band  Eigenvalues  Occupancy
  0    18     -3.36854    1.99289
  0    19     -3.17273    1.69639
  0    20     -3.06813    0.81637
  0    21     -2.97243    0.18466

  1    18     -3.35343    1.99040
  1    19     -3.25409    1.93206
  1    20     -3.19114    1.77958
  1    21     -2.94119    0.10329


Fermi level: -3.08671

No gap

Forces in eV/Ang:
  0 Li   -0.01649   -0.01656   -0.36827
  1 Li   -0.00013    0.00284   -0.32773
  2 Li    0.01657   -0.01650   -0.36807
  3 Li    0.00274   -0.00000   -0.32762
  4 Li    0.00007    0.00000   -0.39597
  5 Li   -0.00294    0.00000   -0.32784
  6 Li   -0.01649    0.01656   -0.36827
  7 Li   -0.00013   -0.00284   -0.32773
  8 Li    0.01657    0.01650   -0.36807
  9 Li    0.00091   -0.00000   -0.20904
 10 Li   -0.03289   -0.00000    0.30178
 11 Li    0.03187   -0.00000    0.30121
 12 Li   -0.00016   -0.03238    0.30149
 13 Li    0.11194    0.11247    0.29586
 14 Li   -0.11169    0.11116    0.29655
 15 Li   -0.00016    0.03238    0.30149
 16 Li    0.11194   -0.11247    0.29586
 17 Li   -0.11169   -0.11116    0.29655
 18 Li   -0.02191   -0.02185    0.04609
 19 Li   -0.00093    0.01100    0.04482
 20 Li    0.02448   -0.02456    0.04883
 21 Li    0.01080    0.00000    0.04541
 22 Li    0.00081    0.00000    0.01276
 23 Li   -0.01119    0.00000    0.04424
 24 Li   -0.02191    0.02185    0.04609
 25 Li   -0.00093   -0.01100    0.04482
 26 Li    0.02448    0.02456    0.04883
 27 Li   -0.00037   -0.00000    0.00196
 28 Li    0.08325   -0.00000    0.02680
 29 Li   -0.16395   -0.00000    0.03116
 30 Li   -0.00392    0.12226    0.02894
 31 Li   -0.00774   -0.00789    0.07023
 32 Li    0.00650   -0.00635    0.07019
 33 Li   -0.00392   -0.12226    0.02894
 34 Li   -0.00774    0.00789    0.07023
 35 Li    0.00650    0.00635    0.07019
 36 N     0.08256   -0.00000    0.16536

System changes: positions 

Initializing position-dependent things.

Density initialized from wave functions
       .-----------------------.  
      /|                       |  
     / |                       |  
    /  |                       |  
   /   |                       |  
  /    |                       |  
 *     |                       |  
 |     |                       |  
 |     |                       |  
 |     |                       |  
 |     |                       |  
 |     |                       |  
 |    Li                       |  
 |     |                       |  
 |     |     Li      Li        |  
 |     |  Li      Li     Li    |  
 |Li   |   Li      Li          |  
 N    LiLi      Li  Li  Li     |  
 |     |                       |  
 Li  LiLi    LLi     LLi       |  
 |     |  Li      Li      Li   |  
 | Li  |   Li      Li          |  
 |     |Li      Li      Li     |  
 Li    | Li      Li            |  
 |    Li      Li      Li       |  
 |     |                       |  
 |     |                       |  
 |     |                       |  
 |     |                       |  
 |     |                       |  
 |     |                       |  
 |     .-----------------------.  
 |    /                       /   
 |   /                       /    
 |  /                       /     
 | /                       /      
 |/                       /       
 *-----------------------*        

Positions:
   0 Li     1.617037    1.617037   10.000000    ( 0.0000,  0.0000,  0.0000)
   1 Li     4.851111    1.617037   10.000000    ( 0.0000,  0.0000,  0.0000)
   2 Li     8.085185    1.617037   10.000000    ( 0.0000,  0.0000,  0.0000)
   3 Li     1.617037    4.851111   10.000000    ( 0.0000,  0.0000,  0.0000)
   4 Li     4.851111    4.851111   10.000000    ( 0.0000,  0.0000,  0.0000)
   5 Li     8.085185    4.851111   10.000000    ( 0.0000,  0.0000,  0.0000)
   6 Li     1.617037    8.085185   10.000000    ( 0.0000,  0.0000,  0.0000)
   7 Li     4.851111    8.085185   10.000000    ( 0.0000,  0.0000,  0.0000)
   8 Li     8.085185    8.085185   10.000000    ( 0.0000,  0.0000,  0.0000)
   9 Li     0.000000    0.000000   11.617037    ( 0.0000,  0.0000,  0.0000)
  10 Li     3.234074    0.000000   11.617037    ( 0.0000,  0.0000,  0.0000)
  11 Li     6.468148    0.000000   11.617037    ( 0.0000,  0.0000,  0.0000)
  12 Li     0.000000    3.234074   11.617037    ( 0.0000,  0.0000,  0.0000)
  13 Li     3.234074    3.234074   11.617037    ( 0.0000,  0.0000,  0.0000)
  14 Li     6.468148    3.234074   11.617037    ( 0.0000,  0.0000,  0.0000)
  15 Li     0.000000    6.468148   11.617037    ( 0.0000,  0.0000,  0.0000)
  16 Li     3.234074    6.468148   11.617037    ( 0.0000,  0.0000,  0.0000)
  17 Li     6.468148    6.468148   11.617037    ( 0.0000,  0.0000,  0.0000)
  18 Li     1.816736    1.816736   13.444146    ( 0.0000,  0.0000,  0.0000)
  19 Li     4.851111    1.488057   13.703519    ( 0.0000,  0.0000,  0.0000)
  20 Li     7.885486    1.816736   13.444146    ( 0.0000,  0.0000,  0.0000)
  21 Li     1.488057    4.851111   13.703519    ( 0.0000,  0.0000,  0.0000)
  22 Li     4.851111    4.851111   13.518882    ( 0.0000,  0.0000,  0.0000)
  23 Li     8.214165    4.851111   13.703519    ( 0.0000,  0.0000,  0.0000)
  24 Li     1.816736    7.885486   13.444146    ( 0.0000,  0.0000,  0.0000)
  25 Li     4.851111    8.214165   13.703519    ( 0.0000,  0.0000,  0.0000)
  26 Li     7.885486    7.885486   13.444146    ( 0.0000,  0.0000,  0.0000)
  27 Li    -0.000000   -0.000000   14.078360    ( 0.0000,  0.0000,  0.0000)
  28 Li     1.922644    0.000000   15.967921    ( 0.0000,  0.0000,  0.0000)
  29 Li     7.779578    0.000000   15.967921    ( 0.0000,  0.0000,  0.0000)
  30 Li     0.000000    1.922644   15.967921    ( 0.0000,  0.0000,  0.0000)
  31 Li     3.307403    3.307403   15.539733    ( 0.0000,  0.0000,  0.0000)
  32 Li     6.394819    3.307403   15.539733    ( 0.0000,  0.0000,  0.0000)
  33 Li    -0.000000    7.779578   15.967921    ( 0.0000,  0.0000,  0.0000)
  34 Li     3.307403    6.394819   15.539733    ( 0.0000,  0.0000,  0.0000)
  35 Li     6.394819    6.394819   15.539733    ( 0.0000,  0.0000,  0.0000)
  36 N      9.712222    9.702222   15.910779    ( 0.0000,  0.0000,  0.0000)

Unit cell:
           periodic     x           y           z      points  spacing
  1. axis:    yes    9.702222    0.000000    0.000000    60     0.1617
  2. axis:    yes    0.000000    9.702222    0.000000    60     0.1617
  3. axis:    no     0.000000    0.000000   24.851111   156     0.1593

  Lengths:   9.702222   9.702222  24.851111
  Angles:   90.000000  90.000000  90.000000

Effective grid spacing dv^(1/3) = 0.1609

     iter     time        total  log10-change:
                         energy  eigst   dens
iter:   1 23:27:33   -66.928138  -2.12
iter:   2 23:32:46   -66.927657  -2.97  -2.44
iter:   3 23:38:02   -66.926659c -2.43  -2.55
iter:   4 23:42:45   -66.926550c -3.26  -2.70
iter:   5 23:47:10   -66.926501c -2.73  -2.99
iter:   6 23:52:20   -66.926493c -2.98  -2.90
iter:   7 23:59:01   -66.926499c -3.45  -3.08
iter:   8 00:04:34   -66.926436c -3.96  -2.97
iter:   9 00:09:50   -66.926417c -4.19  -3.44
iter:  10 00:15:15   -66.926430c -4.00  -3.62
iter:  11 00:21:45   -66.926420c -4.81  -3.52
iter:  12 00:28:37   -66.926420c -5.33  -3.86
iter:  13 00:34:31   -66.926420c -5.65  -3.88
iter:  14 00:40:26   -66.926421c -5.23  -3.89
iter:  15 00:45:38   -66.926420c -5.67  -4.02c
iter:  16 00:50:24   -66.926420c -5.69  -4.29c
iter:  17 00:57:16   -66.926420c -6.11  -4.66c
iter:  18 01:01:46   -66.926420c -6.36  -4.67c
iter:  19 01:02:16   -66.926420c -6.28  -4.69c
iter:  20 01:02:44   -66.926420c -6.62  -4.94c
iter:  21 01:03:00   -66.926420c -6.68  -4.97c
iter:  22 01:03:16   -66.926420c -6.89  -5.05c
iter:  23 01:03:32   -66.926420c -6.87  -5.12c
iter:  24 01:03:48   -66.926420c -7.00  -5.24c
iter:  25 01:04:04   -66.926420c -7.20  -5.34c
iter:  26 01:04:20   -66.926420c -7.34  -5.38c
iter:  27 01:04:36   -66.926420c -7.30  -5.42c
iter:  28 01:04:52   -66.926420c -7.34  -5.49c
iter:  29 01:05:08   -66.926420c -7.49c -5.54c

Converged after 29 iterations.

Dipole moment: (-7.891893, -6.927975, 0.086864) |e|*Ang

Energy contributions relative to reference atoms: (reference = -8815.035974)

Kinetic:        +75.123151
Potential:      -63.309428
External:        +0.000000
XC:             -78.726366
Entropy (-ST):   -0.128405
Local:           +0.050426
--------------------------
Free energy:    -66.990623
Extrapolated:   -66.926420

Dipole-layer corrected work functions: 3.170198, 3.003216 eV

Showing only first 2 kpts
 Kpt  Band  Eigenvalues  Occupancy
  0    18     -3.36853    1.99289
  0    19     -3.17273    1.69639
  0    20     -3.06813    0.81636
  0    21     -2.97243    0.18467

  1    18     -3.35343    1.99040
  1    19     -3.25409    1.93206
  1    20     -3.19114    1.77958
  1    21     -2.94119    0.10329


Fermi level: -3.08671

No gap

Forces in eV/Ang:
  0 Li   -0.01656   -0.01650   -0.36806
  1 Li    0.00012    0.00284   -0.32773
  2 Li    0.01650   -0.01656   -0.36827
  3 Li    0.00294    0.00000   -0.32783
  4 Li   -0.00007   -0.00000   -0.39596
  5 Li   -0.00275    0.00000   -0.32762
  6 Li   -0.01656    0.01650   -0.36806
  7 Li    0.00012   -0.00284   -0.32773
  8 Li    0.01650    0.01656   -0.36827
  9 Li   -0.00089   -0.00000   -0.20904
 10 Li   -0.03188    0.00000    0.30119
 11 Li    0.03288    0.00000    0.30180
 12 Li    0.00016   -0.03238    0.30150
 13 Li    0.11169    0.11116    0.29654
 14 Li   -0.11195    0.11248    0.29587
 15 Li    0.00016    0.03238    0.30150
 16 Li    0.11169   -0.11116    0.29654
 17 Li   -0.11195   -0.11248    0.29587
 18 Li   -0.02448   -0.02456    0.04883
 19 Li    0.00094    0.01100    0.04481
 20 Li    0.02190   -0.02184    0.04609
 21 Li    0.01118   -0.00000    0.04423
 22 Li   -0.00080    0.00000    0.01276
 23 Li   -0.01080    0.00000    0.04541
 24 Li   -0.02448    0.02456    0.04883
 25 Li    0.00094   -0.01100    0.04481
 26 Li    0.02190    0.02184    0.04609
 27 Li    0.00040    0.00000    0.00196
 28 Li    0.16395   -0.00000    0.03116
 29 Li   -0.08325    0.00000    0.02680
 30 Li    0.00393    0.12226    0.02894
 31 Li   -0.00649   -0.00635    0.07018
 32 Li    0.00775   -0.00788    0.07023
 33 Li    0.00393   -0.12226    0.02894
 34 Li   -0.00649    0.00635    0.07018
 35 Li    0.00775    0.00788    0.07023
 36 N    -0.08305    0.00000    0.16537

System changes: positions 

Initializing position-dependent things.

Density initialized from wave functions
       .-----------------------.  
      /|                       |  
     / |                       |  
    /  |                       |  
   /   |                       |  
  /    |                       |  
 *     |                       |  
 |     |                       |  
 |     |                       |  
 |     |                       |  
 |     |                       |  
 |     N                       |  
 |    Li                       |  
 |     |                       |  
 |     |     Li      Li        |  
 |     |  Li      Li     Li    |  
 |Li   |   Li      Li          |  
 |    LiLi      Li  Li  Li     |  
 |     |                       |  
 Li  LiLi    LLi     LLi       |  
 |     |  Li      Li      Li   |  
 | Li  |   Li      Li          |  
 |     |Li      Li      Li     |  
 Li    | Li      Li            |  
 |    Li      Li      Li       |  
 |     |                       |  
 |     |                       |  
 |     |                       |  
 |     |                       |  
 |     |                       |  
 |     |                       |  
 |     .-----------------------.  
 |    /                       /   
 |   /                       /    
 |  /                       /     
 | /                       /      
 |/                       /       
 *-----------------------*        

Positions:
   0 Li     1.617037    1.617037   10.000000    ( 0.0000,  0.0000,  0.0000)
   1 Li     4.851111    1.617037   10.000000    ( 0.0000,  0.0000,  0.0000)
   2 Li     8.085185    1.617037   10.000000    ( 0.0000,  0.0000,  0.0000)
   3 Li     1.617037    4.851111   10.000000    ( 0.0000,  0.0000,  0.0000)
   4 Li     4.851111    4.851111   10.000000    ( 0.0000,  0.0000,  0.0000)
   5 Li     8.085185    4.851111   10.000000    ( 0.0000,  0.0000,  0.0000)
   6 Li     1.617037    8.085185   10.000000    ( 0.0000,  0.0000,  0.0000)
   7 Li     4.851111    8.085185   10.000000    ( 0.0000,  0.0000,  0.0000)
   8 Li     8.085185    8.085185   10.000000    ( 0.0000,  0.0000,  0.0000)
   9 Li     0.000000    0.000000   11.617037    ( 0.0000,  0.0000,  0.0000)
  10 Li     3.234074    0.000000   11.617037    ( 0.0000,  0.0000,  0.0000)
  11 Li     6.468148    0.000000   11.617037    ( 0.0000,  0.0000,  0.0000)
  12 Li     0.000000    3.234074   11.617037    ( 0.0000,  0.0000,  0.0000)
  13 Li     3.234074    3.234074   11.617037    ( 0.0000,  0.0000,  0.0000)
  14 Li     6.468148    3.234074   11.617037    ( 0.0000,  0.0000,  0.0000)
  15 Li     0.000000    6.468148   11.617037    ( 0.0000,  0.0000,  0.0000)
  16 Li     3.234074    6.468148   11.617037    ( 0.0000,  0.0000,  0.0000)
  17 Li     6.468148    6.468148   11.617037    ( 0.0000,  0.0000,  0.0000)
  18 Li     1.816736    1.816736   13.444146    ( 0.0000,  0.0000,  0.0000)
  19 Li     4.851111    1.488057   13.703519    ( 0.0000,  0.0000,  0.0000)
  20 Li     7.885486    1.816736   13.444146    ( 0.0000,  0.0000,  0.0000)
  21 Li     1.488057    4.851111   13.703519    ( 0.0000,  0.0000,  0.0000)
  22 Li     4.851111    4.851111   13.518882    ( 0.0000,  0.0000,  0.0000)
  23 Li     8.214165    4.851111   13.703519    ( 0.0000,  0.0000,  0.0000)
  24 Li     1.816736    7.885486   13.444146    ( 0.0000,  0.0000,  0.0000)
  25 Li     4.851111    8.214165   13.703519    ( 0.0000,  0.0000,  0.0000)
  26 Li     7.885486    7.885486   13.444146    ( 0.0000,  0.0000,  0.0000)
  27 Li    -0.000000   -0.000000   14.078360    ( 0.0000,  0.0000,  0.0000)
  28 Li     1.922644    0.000000   15.967921    ( 0.0000,  0.0000,  0.0000)
  29 Li     7.779578    0.000000   15.967921    ( 0.0000,  0.0000,  0.0000)
  30 Li     0.000000    1.922644   15.967921    ( 0.0000,  0.0000,  0.0000)
  31 Li     3.307403    3.307403   15.539733    ( 0.0000,  0.0000,  0.0000)
  32 Li     6.394819    3.307403   15.539733    ( 0.0000,  0.0000,  0.0000)
  33 Li    -0.000000    7.779578   15.967921    ( 0.0000,  0.0000,  0.0000)
  34 Li     3.307403    6.394819   15.539733    ( 0.0000,  0.0000,  0.0000)
  35 Li     6.394819    6.394819   15.539733    ( 0.0000,  0.0000,  0.0000)
  36 N      9.702222    9.692222   15.910779    ( 0.0000,  0.0000,  0.0000)

Unit cell:
           periodic     x           y           z      points  spacing
  1. axis:    yes    9.702222    0.000000    0.000000    60     0.1617
  2. axis:    yes    0.000000    9.702222    0.000000    60     0.1617
  3. axis:    no     0.000000    0.000000   24.851111   156     0.1593

  Lengths:   9.702222   9.702222  24.851111
  Angles:   90.000000  90.000000  90.000000

Effective grid spacing dv^(1/3) = 0.1609

     iter     time        total  log10-change:
                         energy  eigst   dens
iter:   1 01:05:34   -66.927265  -2.43
iter:   2 01:05:50   -66.927017  -3.22  -2.61
iter:   3 01:06:06   -66.926532c -2.68  -2.72
iter:   4 01:06:22   -66.926474c -3.42  -2.85
iter:   5 01:06:39   -66.926462c -2.99  -3.16
iter:   6 01:06:55   -66.926449c -3.23  -3.03
iter:   7 01:07:11   -66.926463c -3.68  -3.28
iter:   8 01:07:27   -66.926429c -4.16  -3.16
iter:   9 01:07:43   -66.926417c -4.35  -3.58
iter:  10 01:07:59   -66.926426c -4.21  -3.77
iter:  11 01:08:15   -66.926420c -4.99  -3.63
iter:  12 01:08:31   -66.926420c -5.46  -3.95
iter:  13 01:08:47   -66.926420c -5.49  -3.96
iter:  14 01:09:03   -66.926422c -5.06  -3.97
iter:  15 01:09:19   -66.926421c -5.50  -3.80
iter:  16 01:09:35   -66.926421c -5.77  -4.00c
iter:  17 01:09:51   -66.926420c -5.55  -4.19c
iter:  18 01:10:08   -66.926420c -5.93  -4.18c
iter:  19 01:10:24   -66.926420c -6.11  -4.28c
iter:  20 01:10:40   -66.926420c -6.32  -4.39c
iter:  21 01:10:56   -66.926420c -6.56  -4.88c
iter:  22 01:11:12   -66.926420c -7.01  -4.87c
iter:  23 01:11:28   -66.926420c -6.98  -4.91c
iter:  24 01:11:44   -66.926420c -6.91  -5.00c
iter:  25 01:12:00   -66.926420c -7.39  -5.03c
iter:  26 01:12:16   -66.926420c -7.38  -5.18c
iter:  27 01:12:32   -66.926420c -7.52c -5.37c

Converged after 27 iterations.

Dipole moment: (-6.927980, -5.928394, 0.086864) |e|*Ang

Energy contributions relative to reference atoms: (reference = -8815.035974)

Kinetic:        +75.123142
Potential:      -63.309419
External:        +0.000000
XC:             -78.726365
Entropy (-ST):   -0.128405
Local:           +0.050426
--------------------------
Free energy:    -66.990623
Extrapolated:   -66.926420

Dipole-layer corrected work functions: 3.170197, 3.003215 eV

Showing only first 2 kpts
 Kpt  Band  Eigenvalues  Occupancy
  0    18     -3.36853    1.99289
  0    19     -3.17273    1.69636
  0    20     -3.06813    0.81634
  0    21     -2.97244    0.18468

  1    18     -3.35343    1.99040
  1    19     -3.25409    1.93206
  1    20     -3.19114    1.77958
  1    21     -2.94119    0.10329


Fermi level: -3.08671

No gap

Forces in eV/Ang:
  0 Li   -0.01656   -0.01650   -0.36828
  1 Li    0.00000    0.00274   -0.32762
  2 Li    0.01655   -0.01650   -0.36827
  3 Li    0.00284   -0.00011   -0.32772
  4 Li   -0.00000    0.00008   -0.39596
  5 Li   -0.00285   -0.00011   -0.32773
  6 Li   -0.01651    0.01656   -0.36806
  7 Li    0.00000   -0.00295   -0.32783
  8 Li    0.01650    0.01656   -0.36805
  9 Li   -0.00001    0.00088   -0.20904
 10 Li   -0.03238   -0.00017    0.30149
 11 Li    0.03239   -0.00017    0.30151
 12 Li   -0.00000   -0.03287    0.30179
 13 Li    0.11248    0.11196    0.29586
 14 Li   -0.11248    0.11195    0.29587
 15 Li   -0.00000    0.03189    0.30120
 16 Li    0.11116   -0.11169    0.29654
 17 Li   -0.11116   -0.11168    0.29655
 18 Li   -0.02185   -0.02191    0.04611
 19 Li    0.00002    0.01079    0.04541
 20 Li    0.02183   -0.02191    0.04610
 21 Li    0.01099   -0.00092    0.04481
 22 Li    0.00001    0.00082    0.01276
 23 Li   -0.01101   -0.00092    0.04482
 24 Li   -0.02456    0.02447    0.04882
 25 Li    0.00002   -0.01120    0.04423
 26 Li    0.02455    0.02447    0.04881
 27 Li   -0.00000   -0.00039    0.00196
 28 Li    0.12225   -0.00392    0.02893
 29 Li   -0.12228   -0.00391    0.02894
 30 Li    0.00000    0.08326    0.02680
 31 Li   -0.00788   -0.00774    0.07024
 32 Li    0.00790   -0.00774    0.07023
 33 Li    0.00000   -0.16395    0.03116
 34 Li   -0.00634    0.00650    0.07018
 35 Li    0.00636    0.00649    0.07016
 36 N     0.00024    0.08300    0.16536

System changes: positions 

Initializing position-dependent things.

Density initialized from wave functions
       .-----------------------.  
      /|                       |  
     / |                       |  
    /  |                       |  
   /   |                       |  
  /    |                       |  
 *     |                       |  
 |     |                       |  
 |     |                       |  
 |     |                       |  
 |     |                       |  
 |     |                       |  
 |    Li                       |  
 |     |                       |  
 |     |     Li      Li        |  
 |     |  Li      Li     Li    |  
 |Li   |   Li      Li          |  
 N    LiLi      Li  Li  Li     |  
 |     |                       |  
 Li  LiLi    LLi     LLi       |  
 |     |  Li      Li      Li   |  
 | Li  |   Li      Li          |  
 |     |Li      Li      Li     |  
 Li    | Li      Li            |  
 |    Li      Li      Li       |  
 |     |                       |  
 |     |                       |  
 |     |                       |  
 |     |                       |  
 |     |                       |  
 |     |                       |  
 |     .-----------------------.  
 |    /                       /   
 |   /                       /    
 |  /                       /     
 | /                       /      
 |/                       /       
 *-----------------------*        

Positions:
   0 Li     1.617037    1.617037   10.000000    ( 0.0000,  0.0000,  0.0000)
   1 Li     4.851111    1.617037   10.000000    ( 0.0000,  0.0000,  0.0000)
   2 Li     8.085185    1.617037   10.000000    ( 0.0000,  0.0000,  0.0000)
   3 Li     1.617037    4.851111   10.000000    ( 0.0000,  0.0000,  0.0000)
   4 Li     4.851111    4.851111   10.000000    ( 0.0000,  0.0000,  0.0000)
   5 Li     8.085185    4.851111   10.000000    ( 0.0000,  0.0000,  0.0000)
   6 Li     1.617037    8.085185   10.000000    ( 0.0000,  0.0000,  0.0000)
   7 Li     4.851111    8.085185   10.000000    ( 0.0000,  0.0000,  0.0000)
   8 Li     8.085185    8.085185   10.000000    ( 0.0000,  0.0000,  0.0000)
   9 Li     0.000000    0.000000   11.617037    ( 0.0000,  0.0000,  0.0000)
  10 Li     3.234074    0.000000   11.617037    ( 0.0000,  0.0000,  0.0000)
  11 Li     6.468148    0.000000   11.617037    ( 0.0000,  0.0000,  0.0000)
  12 Li     0.000000    3.234074   11.617037    ( 0.0000,  0.0000,  0.0000)
  13 Li     3.234074    3.234074   11.617037    ( 0.0000,  0.0000,  0.0000)
  14 Li     6.468148    3.234074   11.617037    ( 0.0000,  0.0000,  0.0000)
  15 Li     0.000000    6.468148   11.617037    ( 0.0000,  0.0000,  0.0000)
  16 Li     3.234074    6.468148   11.617037    ( 0.0000,  0.0000,  0.0000)
  17 Li     6.468148    6.468148   11.617037    ( 0.0000,  0.0000,  0.0000)
  18 Li     1.816736    1.816736   13.444146    ( 0.0000,  0.0000,  0.0000)
  19 Li     4.851111    1.488057   13.703519    ( 0.0000,  0.0000,  0.0000)
  20 Li     7.885486    1.816736   13.444146    ( 0.0000,  0.0000,  0.0000)
  21 Li     1.488057    4.851111   13.703519    ( 0.0000,  0.0000,  0.0000)
  22 Li     4.851111    4.851111   13.518882    ( 0.0000,  0.0000,  0.0000)
  23 Li     8.214165    4.851111   13.703519    ( 0.0000,  0.0000,  0.0000)
  24 Li     1.816736    7.885486   13.444146    ( 0.0000,  0.0000,  0.0000)
  25 Li     4.851111    8.214165   13.703519    ( 0.0000,  0.0000,  0.0000)
  26 Li     7.885486    7.885486   13.444146    ( 0.0000,  0.0000,  0.0000)
  27 Li    -0.000000   -0.000000   14.078360    ( 0.0000,  0.0000,  0.0000)
  28 Li     1.922644    0.000000   15.967921    ( 0.0000,  0.0000,  0.0000)
  29 Li     7.779578    0.000000   15.967921    ( 0.0000,  0.0000,  0.0000)
  30 Li     0.000000    1.922644   15.967921    ( 0.0000,  0.0000,  0.0000)
  31 Li     3.307403    3.307403   15.539733    ( 0.0000,  0.0000,  0.0000)
  32 Li     6.394819    3.307403   15.539733    ( 0.0000,  0.0000,  0.0000)
  33 Li    -0.000000    7.779578   15.967921    ( 0.0000,  0.0000,  0.0000)
  34 Li     3.307403    6.394819   15.539733    ( 0.0000,  0.0000,  0.0000)
  35 Li     6.394819    6.394819   15.539733    ( 0.0000,  0.0000,  0.0000)
  36 N      9.702222    9.712222   15.910779    ( 0.0000,  0.0000,  0.0000)

Unit cell:
           periodic     x           y           z      points  spacing
  1. axis:    yes    9.702222    0.000000    0.000000    60     0.1617
  2. axis:    yes    0.000000    9.702222    0.000000    60     0.1617
  3. axis:    no     0.000000    0.000000   24.851111   156     0.1593

  Lengths:   9.702222   9.702222  24.851111
  Angles:   90.000000  90.000000  90.000000

Effective grid spacing dv^(1/3) = 0.1609

     iter     time        total  log10-change:
                         energy  eigst   dens
iter:   1 01:12:58   -66.928146  -2.12
iter:   2 01:13:14   -66.927660  -2.97  -2.44
iter:   3 01:13:30   -66.926663c -2.41  -2.55
iter:   4 01:13:46   -66.926552c -3.26  -2.70
iter:   5 01:14:02   -66.926507c -2.72  -2.99
iter:   6 01:14:18   -66.926487c -2.99  -2.89
iter:   7 01:14:34   -66.926503c -3.41  -3.09
iter:   8 01:14:54   -66.926435c -3.95  -2.96
iter:   9 01:15:10   -66.926416c -4.18  -3.45
iter:  10 01:15:26   -66.926432c -3.99  -3.60
iter:  11 01:15:42   -66.926420c -4.74  -3.50
iter:  12 01:15:58   -66.926420c -5.28  -3.87
iter:  13 01:16:14   -66.926421c -5.42  -3.89
iter:  14 01:16:30   -66.926420c -4.98  -3.85
iter:  15 01:16:46   -66.926420c -5.78  -4.16c
iter:  16 01:17:01   -66.926421c -5.61  -4.27c
iter:  17 01:17:17   -66.926420c -5.68  -4.25c
iter:  18 01:17:33   -66.926420c -6.28  -4.61c
iter:  19 01:17:52   -66.926420c -6.44  -4.81c
iter:  20 01:18:08   -66.926420c -6.67  -4.78c
iter:  21 01:18:24   -66.926420c -6.57  -4.87c
iter:  22 01:18:40   -66.926420c -6.84  -4.98c
iter:  23 01:18:56   -66.926420c -6.95  -5.11c
iter:  24 01:19:12   -66.926420c -6.95  -5.13c
iter:  25 01:19:27   -66.926420c -7.16  -5.21c
iter:  26 01:19:43   -66.926420c -7.37  -5.38c
iter:  27 01:20:02   -66.926420c -7.40c -5.39c

Converged after 27 iterations.

Dipole moment: (-6.927976, -7.891896, 0.086863) |e|*Ang

Energy contributions relative to reference atoms: (reference = -8815.035974)

Kinetic:        +75.123159
Potential:      -63.309433
External:        +0.000000
XC:             -78.726369
Entropy (-ST):   -0.128405
Local:           +0.050426
--------------------------
Free energy:    -66.990623
Extrapolated:   -66.926420

Dipole-layer corrected work functions: 3.170197, 3.003216 eV

Showing only first 2 kpts
 Kpt  Band  Eigenvalues  Occupancy
  0    18     -3.36853    1.99289
  0    19     -3.17273    1.69636
  0    20     -3.06813    0.81635
  0    21     -2.97244    0.18468

  1    18     -3.35343    1.99040
  1    19     -3.25409    1.93206
  1    20     -3.19114    1.77958
  1    21     -2.94119    0.10329


Fermi level: -3.08671

No gap

Forces in eV/Ang:
  0 Li   -0.01649   -0.01657   -0.36807
  1 Li   -0.00000    0.00295   -0.32783
  2 Li    0.01649   -0.01657   -0.36807
  3 Li    0.00284    0.00013   -0.32773
  4 Li   -0.00000   -0.00007   -0.39596
  5 Li   -0.00284    0.00013   -0.32773
  6 Li   -0.01657    0.01649   -0.36827
  7 Li   -0.00000   -0.00274   -0.32762
  8 Li    0.01657    0.01649   -0.36827
  9 Li    0.00000   -0.00090   -0.20904
 10 Li   -0.03238    0.00016    0.30150
 11 Li    0.03238    0.00016    0.30150
 12 Li    0.00000   -0.03188    0.30121
 13 Li    0.11116    0.11169    0.29654
 14 Li   -0.11116    0.11169    0.29654
 15 Li   -0.00000    0.03288    0.30178
 16 Li    0.11247   -0.11195    0.29587
 17 Li   -0.11247   -0.11195    0.29587
 18 Li   -0.02456   -0.02448    0.04884
 19 Li   -0.00000    0.01118    0.04424
 20 Li    0.02457   -0.02448    0.04884
 21 Li    0.01100    0.00092    0.04482
 22 Li    0.00000   -0.00080    0.01276
 23 Li   -0.01100    0.00092    0.04482
 24 Li   -0.02183    0.02191    0.04608
 25 Li   -0.00000   -0.01080    0.04541
 26 Li    0.02183    0.02191    0.04608
 27 Li   -0.00000    0.00041    0.00196
 28 Li    0.12226    0.00393    0.02894
 29 Li   -0.12226    0.00393    0.02894
 30 Li   -0.00000    0.16396    0.03115
 31 Li   -0.00636   -0.00650    0.07018
 32 Li    0.00636   -0.00650    0.07018
 33 Li   -0.00000   -0.08324    0.02681
 34 Li   -0.00788    0.00774    0.07023
 35 Li    0.00788    0.00774    0.07023
 36 N     0.00000   -0.08282    0.16535

System changes: positions 

Initializing position-dependent things.

Density initialized from wave functions
       .-----------------------.  
      /|                       |  
     / |                       |  
    /  |                       |  
   /   |                       |  
  /    |                       |  
 *     |                       |  
 |     |                       |  
 |     |                       |  
 |     |                       |  
 |     |                       |  
 |     |                       |  
 |    Li                       |  
 |     |                       |  
 |     |     Li      Li        |  
 |     |  Li      Li     Li    |  
 |Li   |   Li      Li          |  
 N    LiLi      Li  Li  Li     |  
 |     |                       |  
 Li  LiLi    LLi     LLi       |  
 |     |  Li      Li      Li   |  
 | Li  |   Li      Li          |  
 |     |Li      Li      Li     |  
 Li    | Li      Li            |  
 |    Li      Li      Li       |  
 |     |                       |  
 |     |                       |  
 |     |                       |  
 |     |                       |  
 |     |                       |  
 |     |                       |  
 |     .-----------------------.  
 |    /                       /   
 |   /                       /    
 |  /                       /     
 | /                       /      
 |/                       /       
 *-----------------------*        

Positions:
   0 Li     1.617037    1.617037   10.000000    ( 0.0000,  0.0000,  0.0000)
   1 Li     4.851111    1.617037   10.000000    ( 0.0000,  0.0000,  0.0000)
   2 Li     8.085185    1.617037   10.000000    ( 0.0000,  0.0000,  0.0000)
   3 Li     1.617037    4.851111   10.000000    ( 0.0000,  0.0000,  0.0000)
   4 Li     4.851111    4.851111   10.000000    ( 0.0000,  0.0000,  0.0000)
   5 Li     8.085185    4.851111   10.000000    ( 0.0000,  0.0000,  0.0000)
   6 Li     1.617037    8.085185   10.000000    ( 0.0000,  0.0000,  0.0000)
   7 Li     4.851111    8.085185   10.000000    ( 0.0000,  0.0000,  0.0000)
   8 Li     8.085185    8.085185   10.000000    ( 0.0000,  0.0000,  0.0000)
   9 Li     0.000000    0.000000   11.617037    ( 0.0000,  0.0000,  0.0000)
  10 Li     3.234074    0.000000   11.617037    ( 0.0000,  0.0000,  0.0000)
  11 Li     6.468148    0.000000   11.617037    ( 0.0000,  0.0000,  0.0000)
  12 Li     0.000000    3.234074   11.617037    ( 0.0000,  0.0000,  0.0000)
  13 Li     3.234074    3.234074   11.617037    ( 0.0000,  0.0000,  0.0000)
  14 Li     6.468148    3.234074   11.617037    ( 0.0000,  0.0000,  0.0000)
  15 Li     0.000000    6.468148   11.617037    ( 0.0000,  0.0000,  0.0000)
  16 Li     3.234074    6.468148   11.617037    ( 0.0000,  0.0000,  0.0000)
  17 Li     6.468148    6.468148   11.617037    ( 0.0000,  0.0000,  0.0000)
  18 Li     1.816736    1.816736   13.444146    ( 0.0000,  0.0000,  0.0000)
  19 Li     4.851111    1.488057   13.703519    ( 0.0000,  0.0000,  0.0000)
  20 Li     7.885486    1.816736   13.444146    ( 0.0000,  0.0000,  0.0000)
  21 Li     1.488057    4.851111   13.703519    ( 0.0000,  0.0000,  0.0000)
  22 Li     4.851111    4.851111   13.518882    ( 0.0000,  0.0000,  0.0000)
  23 Li     8.214165    4.851111   13.703519    ( 0.0000,  0.0000,  0.0000)
  24 Li     1.816736    7.885486   13.444146    ( 0.0000,  0.0000,  0.0000)
  25 Li     4.851111    8.214165   13.703519    ( 0.0000,  0.0000,  0.0000)
  26 Li     7.885486    7.885486   13.444146    ( 0.0000,  0.0000,  0.0000)
  27 Li    -0.000000   -0.000000   14.078360    ( 0.0000,  0.0000,  0.0000)
  28 Li     1.922644    0.000000   15.967921    ( 0.0000,  0.0000,  0.0000)
  29 Li     7.779578    0.000000   15.967921    ( 0.0000,  0.0000,  0.0000)
  30 Li     0.000000    1.922644   15.967921    ( 0.0000,  0.0000,  0.0000)
  31 Li     3.307403    3.307403   15.539733    ( 0.0000,  0.0000,  0.0000)
  32 Li     6.394819    3.307403   15.539733    ( 0.0000,  0.0000,  0.0000)
  33 Li    -0.000000    7.779578   15.967921    ( 0.0000,  0.0000,  0.0000)
  34 Li     3.307403    6.394819   15.539733    ( 0.0000,  0.0000,  0.0000)
  35 Li     6.394819    6.394819   15.539733    ( 0.0000,  0.0000,  0.0000)
  36 N      9.702222    9.702222   15.900779    ( 0.0000,  0.0000,  0.0000)

Unit cell:
           periodic     x           y           z      points  spacing
  1. axis:    yes    9.702222    0.000000    0.000000    60     0.1617
  2. axis:    yes    0.000000    9.702222    0.000000    60     0.1617
  3. axis:    no     0.000000    0.000000   24.851111   156     0.1593

  Lengths:   9.702222   9.702222  24.851111
  Angles:   90.000000  90.000000  90.000000

Effective grid spacing dv^(1/3) = 0.1609

     iter     time        total  log10-change:
                         energy  eigst   dens
iter:   1 01:20:28   -66.925620  -2.42
iter:   2 01:20:44   -66.925412  -3.22  -2.59
iter:   3 01:21:00   -66.925096c -2.61  -2.69
iter:   4 01:21:16   -66.924943c -3.47  -2.80
iter:   5 01:21:32   -66.924930c -2.97  -3.11
iter:   6 01:21:56   -66.924988c -3.05  -2.93
iter:   7 01:22:14   -66.925005c -3.56  -3.14
iter:   8 01:22:31   -66.924889c -4.10  -3.08
iter:   9 01:22:49   -66.924881c -4.20  -3.50
iter:  10 01:23:06   -66.924879c -4.38  -3.66
iter:  11 01:23:22   -66.924915c -4.67  -3.72
iter:  12 01:23:38   -66.924906c -4.68  -3.57
iter:  13 01:23:54   -66.924889c -4.49  -3.72
iter:  14 01:24:10   -66.924890c -5.36  -3.90
iter:  15 01:24:26   -66.924893c -5.76  -3.92
iter:  16 01:24:43   -66.924883c -5.29  -4.01c
iter:  17 01:24:59   -66.924889c -6.15  -4.19c
iter:  18 01:25:15   -66.924889c -6.38  -4.45c
iter:  19 01:25:31   -66.924889c -6.25  -4.60c
iter:  20 01:25:47   -66.924890c -6.80  -4.60c
iter:  21 01:26:02   -66.924890c -6.79  -4.68c
iter:  22 01:26:18   -66.924890c -6.83  -4.80c
iter:  23 01:26:35   -66.924890c -7.15  -4.87c
iter:  24 01:26:51   -66.924889c -7.18  -4.92c
iter:  25 01:27:07   -66.924890c -7.33  -5.07c
iter:  26 01:27:24   -66.924890c -7.68c -5.25c

Converged after 26 iterations.

Dipole moment: (-6.927091, -6.927084, 0.089036) |e|*Ang

Energy contributions relative to reference atoms: (reference = -8815.035974)

Kinetic:        +75.223630
Potential:      -63.386251
External:        +0.000000
XC:             -78.748548
Entropy (-ST):   -0.128534
Local:           +0.050546
--------------------------
Free energy:    -66.989157
Extrapolated:   -66.924890

Dipole-layer corrected work functions: 3.170365, 2.999207 eV

Showing only first 2 kpts
 Kpt  Band  Eigenvalues  Occupancy
  0    18     -3.36648    1.99288
  0    19     -3.17057    1.69517
  0    20     -3.06610    0.81528
  0    21     -2.97042    0.18436

  1    18     -3.35149    1.99040
  1    19     -3.25200    1.93184
  1    20     -3.18846    1.77659
  1    21     -2.93935    0.10345


Fermi level: -3.08479

No gap

Forces in eV/Ang:
  0 Li   -0.01645   -0.01644   -0.36803
  1 Li    0.00000    0.00279   -0.32790
  2 Li    0.01645   -0.01644   -0.36803
  3 Li    0.00280   -0.00001   -0.32791
  4 Li   -0.00000    0.00001   -0.39592
  5 Li   -0.00280   -0.00001   -0.32791
  6 Li   -0.01644    0.01645   -0.36803
  7 Li    0.00000   -0.00280   -0.32791
  8 Li    0.01644    0.01645   -0.36803
  9 Li    0.00000   -0.00000   -0.20945
 10 Li   -0.03206    0.00000    0.30109
 11 Li    0.03206    0.00000    0.30109
 12 Li    0.00000   -0.03206    0.30107
 13 Li    0.11162    0.11161    0.29629
 14 Li   -0.11162    0.11161    0.29629
 15 Li   -0.00000    0.03206    0.30110
 16 Li    0.11160   -0.11161    0.29628
 17 Li   -0.11160   -0.11161    0.29628
 18 Li   -0.02420   -0.02421    0.04893
 19 Li    0.00000    0.01109    0.04504
 20 Li    0.02420   -0.02421    0.04893
 21 Li    0.01108    0.00001    0.04505
 22 Li    0.00000   -0.00001    0.01236
 23 Li   -0.01108    0.00001    0.04505
 24 Li   -0.02422    0.02421    0.04897
 25 Li   -0.00000   -0.01107    0.04505
 26 Li    0.02422    0.02421    0.04897
 27 Li    0.00000   -0.00001   -0.06824
 28 Li    0.12093   -0.00002    0.02360
 29 Li   -0.12093   -0.00002    0.02360
 30 Li   -0.00000    0.12089    0.02362
 31 Li   -0.00705   -0.00706    0.07042
 32 Li    0.00705   -0.00706    0.07042
 33 Li   -0.00000   -0.12095    0.02358
 34 Li   -0.00708    0.00707    0.07042
 35 Li    0.00708    0.00707    0.07042
 36 N     0.00000   -0.00009    0.24734

System changes: positions 

Initializing position-dependent things.

Density initialized from wave functions
       .-----------------------.  
      /|                       |  
     / |                       |  
    /  |                       |  
   /   |                       |  
  /    |                       |  
 *     |                       |  
 |     |                       |  
 |     |                       |  
 |     |                       |  
 |     |                       |  
 |     |                       |  
 |    Li                       |  
 |     |                       |  
 |     |     Li      Li        |  
 |     |  Li      Li     Li    |  
 |Li   |   Li      Li          |  
 N    LiLi      Li  Li  Li     |  
 |     |                       |  
 Li  LiLi    LLi     LLi       |  
 |     |  Li      Li      Li   |  
 | Li  |   Li      Li          |  
 |     |Li      Li      Li     |  
 Li    | Li      Li            |  
 |    Li      Li      Li       |  
 |     |                       |  
 |     |                       |  
 |     |                       |  
 |     |                       |  
 |     |                       |  
 |     |                       |  
 |     .-----------------------.  
 |    /                       /   
 |   /                       /    
 |  /                       /     
 | /                       /      
 |/                       /       
 *-----------------------*        

Positions:
   0 Li     1.617037    1.617037   10.000000    ( 0.0000,  0.0000,  0.0000)
   1 Li     4.851111    1.617037   10.000000    ( 0.0000,  0.0000,  0.0000)
   2 Li     8.085185    1.617037   10.000000    ( 0.0000,  0.0000,  0.0000)
   3 Li     1.617037    4.851111   10.000000    ( 0.0000,  0.0000,  0.0000)
   4 Li     4.851111    4.851111   10.000000    ( 0.0000,  0.0000,  0.0000)
   5 Li     8.085185    4.851111   10.000000    ( 0.0000,  0.0000,  0.0000)
   6 Li     1.617037    8.085185   10.000000    ( 0.0000,  0.0000,  0.0000)
   7 Li     4.851111    8.085185   10.000000    ( 0.0000,  0.0000,  0.0000)
   8 Li     8.085185    8.085185   10.000000    ( 0.0000,  0.0000,  0.0000)
   9 Li     0.000000    0.000000   11.617037    ( 0.0000,  0.0000,  0.0000)
  10 Li     3.234074    0.000000   11.617037    ( 0.0000,  0.0000,  0.0000)
  11 Li     6.468148    0.000000   11.617037    ( 0.0000,  0.0000,  0.0000)
  12 Li     0.000000    3.234074   11.617037    ( 0.0000,  0.0000,  0.0000)
  13 Li     3.234074    3.234074   11.617037    ( 0.0000,  0.0000,  0.0000)
  14 Li     6.468148    3.234074   11.617037    ( 0.0000,  0.0000,  0.0000)
  15 Li     0.000000    6.468148   11.617037    ( 0.0000,  0.0000,  0.0000)
  16 Li     3.234074    6.468148   11.617037    ( 0.0000,  0.0000,  0.0000)
  17 Li     6.468148    6.468148   11.617037    ( 0.0000,  0.0000,  0.0000)
  18 Li     1.816736    1.816736   13.444146    ( 0.0000,  0.0000,  0.0000)
  19 Li     4.851111    1.488057   13.703519    ( 0.0000,  0.0000,  0.0000)
  20 Li     7.885486    1.816736   13.444146    ( 0.0000,  0.0000,  0.0000)
  21 Li     1.488057    4.851111   13.703519    ( 0.0000,  0.0000,  0.0000)
  22 Li     4.851111    4.851111   13.518882    ( 0.0000,  0.0000,  0.0000)
  23 Li     8.214165    4.851111   13.703519    ( 0.0000,  0.0000,  0.0000)
  24 Li     1.816736    7.885486   13.444146    ( 0.0000,  0.0000,  0.0000)
  25 Li     4.851111    8.214165   13.703519    ( 0.0000,  0.0000,  0.0000)
  26 Li     7.885486    7.885486   13.444146    ( 0.0000,  0.0000,  0.0000)
  27 Li    -0.000000   -0.000000   14.078360    ( 0.0000,  0.0000,  0.0000)
  28 Li     1.922644    0.000000   15.967921    ( 0.0000,  0.0000,  0.0000)
  29 Li     7.779578    0.000000   15.967921    ( 0.0000,  0.0000,  0.0000)
  30 Li     0.000000    1.922644   15.967921    ( 0.0000,  0.0000,  0.0000)
  31 Li     3.307403    3.307403   15.539733    ( 0.0000,  0.0000,  0.0000)
  32 Li     6.394819    3.307403   15.539733    ( 0.0000,  0.0000,  0.0000)
  33 Li    -0.000000    7.779578   15.967921    ( 0.0000,  0.0000,  0.0000)
  34 Li     3.307403    6.394819   15.539733    ( 0.0000,  0.0000,  0.0000)
  35 Li     6.394819    6.394819   15.539733    ( 0.0000,  0.0000,  0.0000)
  36 N      9.702222    9.702222   15.920779    ( 0.0000,  0.0000,  0.0000)

Unit cell:
           periodic     x           y           z      points  spacing
  1. axis:    yes    9.702222    0.000000    0.000000    60     0.1617
  2. axis:    yes    0.000000    9.702222    0.000000    60     0.1617
  3. axis:    no     0.000000    0.000000   24.851111   156     0.1593

  Lengths:   9.702222   9.702222  24.851111
  Angles:   90.000000  90.000000  90.000000

Effective grid spacing dv^(1/3) = 0.1609

     iter     time        total  log10-change:
                         energy  eigst   dens
iter:   1 01:27:54   -66.930146  -2.09
iter:   2 01:28:12   -66.929616  -2.95  -2.46
iter:   3 01:28:29   -66.928295c -2.34  -2.54
iter:   4 01:28:45   -66.928527c -3.13  -2.67
iter:   5 01:29:01   -66.928608c -2.69  -2.91
iter:   6 01:29:17   -66.928191c -2.67  -2.69
iter:   7 01:29:33   -66.928202c -3.29  -2.99
iter:   8 01:29:53   -66.928153c -3.72  -3.00
iter:   9 01:30:09   -66.928163c -3.58  -3.31
iter:  10 01:30:25   -66.928123c -4.43  -3.43
iter:  11 01:30:41   -66.928127c -4.50  -3.43
iter:  12 01:30:58   -66.928132c -4.24  -3.75
iter:  13 01:31:14   -66.928138c -4.78  -3.74
iter:  14 01:31:30   -66.928133c -5.51  -3.76
iter:  15 01:31:46   -66.928133c -5.35  -3.83
iter:  16 01:32:02   -66.928151c -4.72  -4.09c
iter:  17 01:32:18   -66.928145c -5.69  -3.77
iter:  18 01:32:34   -66.928141c -5.89  -3.86
iter:  19 01:32:51   -66.928140c -5.65  -3.92
iter:  20 01:33:07   -66.928137c -5.42  -4.25c
iter:  21 01:33:22   -66.928136c -6.13  -4.48c
iter:  22 01:33:38   -66.928136c -6.72  -4.53c
iter:  23 01:33:54   -66.928136c -6.58  -4.71c
iter:  24 01:34:16   -66.928136c -6.57  -4.84c
iter:  25 01:34:35   -66.928136c -7.09  -4.90c
iter:  26 01:34:53   -66.928137c -7.13  -4.91c
iter:  27 01:35:11   -66.928137c -7.30  -4.95c
iter:  28 01:35:28   -66.928136c -7.09  -5.05c
iter:  29 01:35:49   -66.928136c -7.64c -5.08c

Converged after 29 iterations.

Dipole moment: (-6.928871, -6.928871, 0.084680) |e|*Ang

Energy contributions relative to reference atoms: (reference = -8815.035974)

Kinetic:        +75.018768
Potential:      -63.230196
External:        +0.000000
XC:             -78.703416
Entropy (-ST):   -0.128279
Local:           +0.050847
--------------------------
Free energy:    -66.992276
Extrapolated:   -66.928136

Dipole-layer corrected work functions: 3.170031, 3.007247 eV

Showing only first 2 kpts
 Kpt  Band  Eigenvalues  Occupancy
  0    18     -3.37060    1.99291
  0    19     -3.17490    1.69759
  0    20     -3.07017    0.81740
  0    21     -2.97446    0.18498

  1    18     -3.35538    1.99040
  1    19     -3.25619    1.93227
  1    20     -3.19383    1.78253
  1    21     -2.94305    0.10314


Fermi level: -3.08864

No gap

Forces in eV/Ang:
  0 Li   -0.01661   -0.01661   -0.36831
  1 Li    0.00000    0.00289   -0.32754
  2 Li    0.01661   -0.01661   -0.36831
  3 Li    0.00289    0.00000   -0.32754
  4 Li    0.00000    0.00000   -0.39599
  5 Li   -0.00290    0.00000   -0.32754
  6 Li   -0.01661    0.01661   -0.36831
  7 Li    0.00000   -0.00289   -0.32754
  8 Li    0.01661    0.01661   -0.36831
  9 Li    0.00000   -0.00000   -0.20857
 10 Li   -0.03269    0.00000    0.30191
 11 Li    0.03269    0.00000    0.30191
 12 Li    0.00000   -0.03269    0.30191
 13 Li    0.11203    0.11203    0.29613
 14 Li   -0.11203    0.11203    0.29613
 15 Li    0.00000    0.03269    0.30191
 16 Li    0.11203   -0.11203    0.29613
 17 Li   -0.11203   -0.11203    0.29613
 18 Li   -0.02222   -0.02222    0.04600
 19 Li    0.00000    0.01091    0.04458
 20 Li    0.02222   -0.02222    0.04600
 21 Li    0.01091   -0.00000    0.04458
 22 Li    0.00000    0.00000    0.01315
 23 Li   -0.01091   -0.00000    0.04458
 24 Li   -0.02223    0.02222    0.04601
 25 Li    0.00000   -0.01091    0.04458
 26 Li    0.02223    0.02222    0.04601
 27 Li    0.00000   -0.00000    0.06812
 28 Li    0.12369   -0.00000    0.03420
 29 Li   -0.12369   -0.00000    0.03420
 30 Li    0.00000    0.12368    0.03420
 31 Li   -0.00718   -0.00718    0.06996
 32 Li    0.00718   -0.00718    0.06996
 33 Li   -0.00000   -0.12369    0.03419
 34 Li   -0.00718    0.00718    0.06996
 35 Li    0.00718    0.00718    0.06996
 36 N     0.00000    0.00000    0.09116

Timing:                                      incl.     excl.
-------------------------------------------------------------------
Density initialized from wave functions:    10.823    10.822   0.0% |
 Symmetrize density:                         0.000     0.000   0.0% |
Forces:                                     32.362    32.362   0.1% |
Hamiltonian:                                14.340     0.001   0.0% |
 Atomic:                                     0.271     0.007   0.0% |
  XC Correction:                             0.263     0.263   0.0% |
 Calculate atomic Hamiltonians:              0.559     0.559   0.0% |
 Communicate:                                2.596     2.596   0.0% |
 Hartree integrate/restrict:                 1.966     1.966   0.0% |
 Initialize Hamiltonian:                     0.000     0.000   0.0% |
 Poisson:                                    5.791     1.778   0.0% |
  Communicate from 1D:                       0.952     0.952   0.0% |
  Communicate from 2D:                       1.016     1.016   0.0% |
  Communicate to 1D:                         0.251     0.251   0.0% |
  Communicate to 2D:                         1.375     1.375   0.0% |
  FFT 1D:                                    0.212     0.212   0.0% |
  FFT 2D:                                    0.208     0.208   0.0% |
 XC 3D grid:                                 3.141     3.141   0.0% |
 vbar:                                       0.015     0.015   0.0% |
LCAO initialization:                         4.064     0.083   0.0% |
 LCAO eigensolver:                           0.611     0.003   0.0% |
  Calculate projections:                     0.000     0.000   0.0% |
  DenseAtomicCorrection:                     0.000     0.000   0.0% |
  Distribute overlap matrix:                 0.446     0.446   0.0% |
  Orbital Layouts:                           0.156     0.156   0.0% |
  Potential matrix:                          0.000     0.000   0.0% |
  Sum over cells:                            0.005     0.005   0.0% |
 LCAO to grid:                               2.767     2.767   0.0% |
 Set positions (LCAO WFS):                   0.604     0.491   0.0% |
  Basic WFS set positions:                   0.002     0.002   0.0% |
  Basis functions set positions:             0.000     0.000   0.0% |
  P tci:                                     0.002     0.002   0.0% |
  ST tci:                                    0.056     0.056   0.0% |
  mktci:                                     0.052     0.052   0.0% |
Redistribute:                                0.014     0.014   0.0% |
SCF-cycle:                               38498.613  3981.864  10.3% |---|
 Davidson:                               33735.122 26014.030  67.4% |--------------------------|
  Apply hamiltonian:                      1388.429  1388.429   3.6% ||
  Subspace diag:                          1761.644     0.481   0.0% |
   calc_h_matrix:                         1339.485    50.165   0.1% |
    Apply hamiltonian:                    1289.320  1289.320   3.3% ||
   diagonalize:                            258.653   258.653   0.7% |
   rotate_psi:                             163.025   163.025   0.4% |
  calc. matrices:                         4195.167  1221.204   3.2% ||
   Apply hamiltonian:                     2973.963  2973.963   7.7% |--|
  diagonalize:                               7.662     7.662   0.0% |
  rotate_psi:                              368.190   368.190   1.0% |
 Density:                                  101.421     0.009   0.0% |
  Atomic density matrices:                  23.629    23.629   0.1% |
  Mix:                                      49.482    49.482   0.1% |
  Multipole moments:                        11.139    11.139   0.0% |
  Pseudo density:                           17.163    17.151   0.0% |
   Symmetrize density:                       0.012     0.012   0.0% |
 Hamiltonian:                              671.978     0.041   0.0% |
  Atomic:                                   12.793     0.386   0.0% |
   XC Correction:                           12.406    12.406   0.0% |
  Calculate atomic Hamiltonians:            27.290    27.290   0.1% |
  Communicate:                             103.190   103.190   0.3% |
  Hartree integrate/restrict:               82.855    82.855   0.2% |
  Poisson:                                 297.348    84.961   0.2% |
   Communicate from 1D:                     53.353    53.353   0.1% |
   Communicate from 2D:                     57.864    57.864   0.1% |
   Communicate to 1D:                       13.861    13.861   0.0% |
   Communicate to 2D:                       69.169    69.169   0.2% |
   FFT 1D:                                   9.198     9.198   0.0% |
   FFT 2D:                                   8.941     8.941   0.0% |
  XC 3D grid:                              147.831   147.831   0.4% |
  vbar:                                      0.631     0.631   0.0% |
 Orthonormalize:                             8.226     0.012   0.0% |
  calc_s_matrix:                             0.741     0.741   0.0% |
  inverse-cholesky:                          5.296     5.296   0.0% |
  projections:                               0.004     0.004   0.0% |
  rotate_psi_s:                              2.174     2.174   0.0% |
Set symmetry:                                0.003     0.003   0.0% |
Other:                                      59.365    59.365   0.2% |
-------------------------------------------------------------------
Total:                                             38619.584 100.0%

Memory usage: 343.30 MiB
Date: Thu Feb  2 01:35:51 2023
