
  ___ ___ ___ _ _ _  
 |   |   |_  | | | | 
 | | | | | . | | | | 
 |__ |  _|___|_____|  22.8.0
 |___|_|             

User:   vazumah@f017
Date:   Mon Feb 13 08:37:05 2023
Arch:   x86_64
Pid:    37016
CWD:    /home/vazumah/Python_Projects/Li_NRR/Li_adsorb_studies/autocat/multi_adsorbates/3N/adsorbates/N/ontop/9.702_9.702
Python: 3.10.6
gpaw:   /home/vazumah/anaconda3/envs/NAME/lib/python3.10/site-packages/gpaw
_gpaw:  /home/vazumah/anaconda3/envs/NAME/lib/python3.10/site-packages/
        _gpaw.cpython-310-x86_64-linux-gnu.so
ase:    /home/vazumah/anaconda3/envs/NAME/lib/python3.10/site-packages/ase (version 3.22.1)
numpy:  /home/vazumah/anaconda3/envs/NAME/lib/python3.10/site-packages/numpy (version 1.23.3)
scipy:  /home/vazumah/anaconda3/envs/NAME/lib/python3.10/site-packages/scipy (version 1.9.1)
libxc:  5.2.3
units:  Angstrom and eV
cores: 32
OpenMP: True
OMP_NUM_THREADS: 1

Reading from output.gpw
Reading input parameters:
  h: 0.16
  kpts: {size: [4, 4, 1]}
  occupations: {name: fermi-dirac,
                width: 0.05}
  poissonsolver: {dipolelayer: xy}
  xc: BEEF-vdW

Initialize ...

species:
  Li:
    name: Lithium
    id: 830b4218f175192f93f959cfc0aad614
    Z: 3.0
    valence: 1
    core: 2
    charge: 0.0
    file: /home/vazumah/anaconda3/envs/NAME/share/gpaw/Li.PBE.gz
    compensation charges: {type: gauss,
                           rc: 0.33,
                           lmax: 2}
    cutoffs: {filter: 1.91,
              core: 2.55}
    valence states:
      #              energy  rcut
      - 2s(1.00)    -2.874   1.058
      - 2p(0.00)    -1.090   1.058
      -  s          24.337   1.058
  
    # Using partial waves for Li as LCAO basis

  N:
    name: Nitrogen
    id: f7500608b86eaa90eef8b1d9a670dc53
    Z: 7.0
    valence: 5
    core: 2
    charge: 0.0
    file: /home/vazumah/anaconda3/envs/NAME/share/gpaw/N.PBE.gz
    compensation charges: {type: gauss,
                           rc: 0.18,
                           lmax: 2}
    cutoffs: {filter: 1.11,
              core: 0.96}
    valence states:
      #              energy  rcut
      - 2s(2.00)   -18.583   0.603
      - 2p(3.00)    -7.089   0.529
      -  s           8.629   0.603
      -  p          20.123   0.529
      -  d           0.000   0.577
  
    # Using partial waves for N as LCAO basis

Reference energy: -11745.526041  # eV

Spin-paired calculation

Convergence criteria:
 Maximum [total energy] change in last 3 cyles: 0.0005 eV / electron
 Maximum integral of absolute [dens]ity change: 0.0001 electrons / valence electron
 Maximum integral of absolute [eigenst]ate change: 4e-08 eV^2 / valence electron
 Maximum number of scf [iter]ations: 333
 (Square brackets indicate name in SCF output, whereas a 'c' in
 the SCF output indicates the quantity has converged.)

Symmetries present (total): 2

  ( 1  0  0)  ( 0  1  0)
  ( 0  1  0)  ( 1  0  0)
  ( 0  0  1)  ( 0  0  1)

16 k-points: 4 x 4 x 1 Monkhorst-Pack grid
6 k-points in the irreducible part of the Brillouin zone
       k-points in crystal coordinates                weights
   0:     0.12500000   -0.12500000    0.00000000          2/16
   1:     0.12500000    0.12500000    0.00000000          2/16
   2:     0.37500000   -0.37500000    0.00000000          2/16
   3:     0.37500000   -0.12500000    0.00000000          4/16
   4:     0.37500000    0.12500000    0.00000000          4/16
   5:     0.37500000    0.37500000    0.00000000          2/16

Wave functions: Uniform real-space grid
  Kinetic energy operator: 6*3+1=19 point O(h^6) finite-difference Laplacian
  ScaLapack parameters: grid=1x1, blocksize=None
  Wavefunction extrapolation:
    Improved wavefunction reuse through dual PAW basis 

Occupation numbers: Fermi-Dirac:
  width: 0.0500  # eV
 

Eigensolver
   Davidson(niter=2) 

Densities:
  Coarse grid: 60*60*156 grid
  Fine grid: 120*120*312 grid
  Total Charge: 0.000000 

Density mixing:
  Method: separate
  Backend: pulay
  Linear mixing parameter: 0.05
  old densities: 5
  Damping of long wavelength oscillations: 50 

Hamiltonian:
  XC and Coulomb potentials evaluated on a 120*120*312 grid
  Using the BEEF-vdW Exchange-Correlation functional
  Interpolation: tri-quintic (5. degree polynomial)
  Poisson solver: FastPoissonSolver using
    Stencil: 6*3+1=19 point O(h^6) finite-difference Laplacian
    FFT axes: [0, 1]
    FST axes: [2]

Dipole correction along z-axis 

XC parameters: BEEF-vdW with 2 nearest neighbor stencil

Memory estimate:
  Process memory now: 127.66 MiB
  Calculator: 103.69 MiB
    Density: 21.73 MiB
      Arrays: 6.87 MiB
      Localized functions: 12.26 MiB
      Mixer: 2.61 MiB
    Hamiltonian: 5.46 MiB
      Arrays: 4.49 MiB
      XC: 0.00 MiB
      Poisson: 0.00 MiB
      vbar: 0.97 MiB
    Wavefunctions: 76.50 MiB
      Arrays psit_nG: 54.79 MiB
      Eigensolver: 21.06 MiB
      Projections: 0.02 MiB
      Projectors: 0.62 MiB

Total number of cores used: 32
Parallelization over k-points: 2
Domain decomposition: 2 x 2 x 4

Number of atoms: 39
Number of atomic orbitals: 156
Number of bands in calculation: 35
Number of valence electrons: 51
Bands to converge: occupied

... initialized

Initializing position-dependent things.

Creating initial wave functions:
  35 bands from LCAO basis set

       .-----------------------.  
      /|                       |  
     / |                       |  
    /  |                       |  
   /   |                       |  
  /    |                       |  
 *     |                       |  
 |     |                       |  
 |     |                       |  
 |     |                       |  
 |     |                     Li|  
 |     |                       |  
 |     |               Li    N |  
 |     |   Li    Li       Li   |  
 |     |Li     Li   Li         |  
 |     |           LiN    Li   |  
 |     |         Li            |  
 | Li  Li  Li          Li      |  
 |     |                       |  
 |   LLi     LLi     LLi       |  
 |     |  Li      Li      Li   |  
 | Li  |   Li      Li          |  
 |     |Li      Li      Li     |  
 Li    | Li      Li            |  
 |    Li      Li      Li       |  
 |     |                       |  
 |     |                       |  
 |     |                       |  
 |     |                       |  
 |     |                       |  
 |     |                       |  
 |     .-----------------------.  
 |    /                       /   
 |   /                       /    
 |  /                       /     
 | /                       /      
 |/                       /       
 *-----------------------*        

Positions:
   0 Li     1.617037    1.617037   10.000000    ( 0.0000,  0.0000,  0.0000)
   1 Li     4.851111    1.617037   10.000000    ( 0.0000,  0.0000,  0.0000)
   2 Li     8.085185    1.617037   10.000000    ( 0.0000,  0.0000,  0.0000)
   3 Li     1.617037    4.851111   10.000000    ( 0.0000,  0.0000,  0.0000)
   4 Li     4.851111    4.851111   10.000000    ( 0.0000,  0.0000,  0.0000)
   5 Li     8.085185    4.851111   10.000000    ( 0.0000,  0.0000,  0.0000)
   6 Li     1.617037    8.085185   10.000000    ( 0.0000,  0.0000,  0.0000)
   7 Li     4.851111    8.085185   10.000000    ( 0.0000,  0.0000,  0.0000)
   8 Li     8.085185    8.085185   10.000000    ( 0.0000,  0.0000,  0.0000)
   9 Li     0.000000    0.000000   11.617037    ( 0.0000,  0.0000,  0.0000)
  10 Li     3.234074    0.000000   11.617037    ( 0.0000,  0.0000,  0.0000)
  11 Li     6.468148    0.000000   11.617037    ( 0.0000,  0.0000,  0.0000)
  12 Li     0.000000    3.234074   11.617037    ( 0.0000,  0.0000,  0.0000)
  13 Li     3.234074    3.234074   11.617037    ( 0.0000,  0.0000,  0.0000)
  14 Li     6.468148    3.234074   11.617037    ( 0.0000,  0.0000,  0.0000)
  15 Li     0.000000    6.468148   11.617037    ( 0.0000,  0.0000,  0.0000)
  16 Li     3.234074    6.468148   11.617037    ( 0.0000,  0.0000,  0.0000)
  17 Li     6.468148    6.468148   11.617037    ( 0.0000,  0.0000,  0.0000)
  18 Li     1.729048    1.729048   13.194900    ( 0.0000,  0.0000,  0.0000)
  19 Li     4.921850    1.101151   13.755736    ( 0.0000,  0.0000,  0.0000)
  20 Li     8.147041    0.766498   14.246336    ( 0.0000,  0.0000,  0.0000)
  21 Li     1.101151    4.921850   13.755736    ( 0.0000,  0.0000,  0.0000)
  22 Li     5.023157    5.023157   14.018468    ( 0.0000,  0.0000,  0.0000)
  23 Li     7.707337    5.300138   13.655356    ( 0.0000,  0.0000,  0.0000)
  24 Li     0.766498    8.147041   14.246336    ( 0.0000,  0.0000,  0.0000)
  25 Li     5.300138    7.707337   13.655356    ( 0.0000,  0.0000,  0.0000)
  26 Li    10.344515   10.344515   15.502489    ( 0.0000,  0.0000,  0.0000)
  27 Li    -0.710511   -0.710511   17.174921    ( 0.0000,  0.0000,  0.0000)
  28 Li     4.823758    2.774328   16.678624    ( 0.0000,  0.0000,  0.0000)
  29 Li     6.854235   -1.187967   15.562822    ( 0.0000,  0.0000,  0.0000)
  30 Li     2.774328    4.823758   16.678624    ( 0.0000,  0.0000,  0.0000)
  31 Li     3.351948    3.351948   14.747019    ( 0.0000,  0.0000,  0.0000)
  32 Li     6.418612    4.857229   15.930837    ( 0.0000,  0.0000,  0.0000)
  33 Li    -1.187967    6.854235   15.562822    ( 0.0000,  0.0000,  0.0000)
  34 Li     4.857229    6.418612   15.930837    ( 0.0000,  0.0000,  0.0000)
  35 Li     7.941281    7.941281   13.594339    ( 0.0000,  0.0000,  0.0000)
  36 N      8.897417    8.897417   15.324731    ( 0.0000,  0.0000,  0.0000)
  37 N      4.453697    4.453697   15.920710    ( 0.0000,  0.0000,  0.0000)
  38 N      6.581052    6.581052   14.733503    ( 0.0000,  0.0000,  0.0000)

Unit cell:
           periodic     x           y           z      points  spacing
  1. axis:    yes    9.702222    0.000000    0.000000    60     0.1617
  2. axis:    yes    0.000000    9.702222    0.000000    60     0.1617
  3. axis:    no     0.000000    0.000000   24.851111   156     0.1593

  Lengths:   9.702222   9.702222  24.851111
  Angles:   90.000000  90.000000  90.000000

Effective grid spacing dv^(1/3) = 0.1609

     iter     time        total  log10-change:
                         energy  eigst   dens
iter:   1 08:38:16  -250.054061  +0.99
iter:   2 08:38:49  -250.492510  +0.38  -1.59
iter:   3 08:39:24  -250.628306  -0.03  -1.80
iter:   4 08:39:59  -250.688773  -0.37  -2.08
Writing to output.gpw (mode='')

iter:   5 08:40:34  -250.718402  -0.68  -2.29
iter:   6 08:41:06  -250.733418  -1.10  -2.38
iter:   7 08:41:39  -250.740873c -1.33  -2.43
iter:   8 08:42:10  -250.744283c -1.45  -2.51
iter:   9 08:42:43  -250.747724c -1.61  -2.89
Writing to output.gpw (mode='')

iter:  10 08:43:16  -250.750320c -1.79  -3.04
iter:  11 08:43:49  -250.751946c -1.91  -3.22
iter:  12 08:44:21  -250.753224c -2.01  -3.20
iter:  13 08:44:55  -250.754125c -2.20  -3.03
iter:  14 08:45:32  -250.755003c -2.20  -3.02
Writing to output.gpw (mode='')

iter:  15 08:46:06  -250.755454c -2.40  -2.84
iter:  16 08:46:37  -250.756021c -2.43  -2.84
iter:  17 08:47:11  -250.756078c -2.63  -2.76
iter:  18 08:47:47  -250.756313c -2.84  -2.93
iter:  19 08:48:49  -250.756550c -2.82  -2.87
Writing to output.gpw (mode='')

iter:  20 08:52:32  -250.756354c -3.02  -2.81
iter:  21 08:55:12  -250.756449c -3.24  -3.21
iter:  22 08:57:57  -250.756516c -3.30  -3.24
iter:  23 08:59:43  -250.756539c -3.48  -3.26
iter:  24 09:01:19  -250.756555c -3.51  -3.29
Writing to output.gpw (mode='')

iter:  25 09:04:46  -250.756599c -3.62  -3.33
iter:  26 09:08:32  -250.756599c -3.68  -3.43
iter:  27 09:11:18  -250.756616c -3.64  -3.54
iter:  28 09:15:00  -250.756633c -3.95  -3.56
iter:  29 09:18:21  -250.756644c -4.12  -3.52
Writing to output.gpw (mode='')

iter:  30 09:22:12  -250.756659c -4.17  -3.60
iter:  31 09:26:49  -250.756666c -4.38  -3.80
iter:  32 09:31:48  -250.756675c -4.30  -3.78
iter:  33 09:36:05  -250.756684c -4.34  -3.78
iter:  34 09:40:21  -250.756693c -4.49  -3.74
Writing to output.gpw (mode='')

iter:  35 09:45:43  -250.756703c -4.61  -3.75
iter:  36 09:49:41  -250.756711c -4.72  -3.80
iter:  37 09:54:04  -250.756719c -4.65  -3.86
iter:  38 09:59:57  -250.756735c -5.00  -3.93
iter:  39 10:04:30  -250.756738c -5.06  -4.10c
Writing to output.gpw (mode='')

iter:  40 10:10:00  -250.756737c -5.09  -4.21c
iter:  41 10:14:23  -250.756736c -5.14  -4.23c
iter:  42 10:18:33  -250.756735c -5.11  -4.25c
iter:  43 10:21:48  -250.756735c -5.40  -4.30c
iter:  44 10:25:59  -250.756736c -5.44  -4.43c
Writing to output.gpw (mode='')

iter:  45 10:29:23  -250.756738c -5.33  -4.48c
iter:  46 10:33:22  -250.756739c -5.69  -4.62c
iter:  47 10:37:17  -250.756741c -5.54  -4.66c
iter:  48 10:42:21  -250.756742c -5.73  -4.70c
iter:  49 10:46:27  -250.756742c -5.81  -4.78c
Writing to output.gpw (mode='')

iter:  50 10:50:27  -250.756743c -5.96  -4.82c
iter:  51 10:54:28  -250.756743c -6.04  -4.86c
iter:  52 10:59:41  -250.756743c -6.12  -4.93c
iter:  53 11:02:37  -250.756743c -6.40  -4.92c
iter:  54 11:06:25  -250.756743c -6.12  -4.97c
Writing to output.gpw (mode='')

iter:  55 11:11:27  -250.756743c -6.49  -4.96c
iter:  56 11:16:53  -250.756744c -6.60  -4.88c
iter:  57 11:23:35  -250.756745c -6.65  -4.95c
iter:  58 11:28:57  -250.756745c -6.82  -5.10c
iter:  59 11:34:18  -250.756745c -6.90  -5.12c
Writing to output.gpw (mode='')

iter:  60 11:39:34  -250.756745c -6.93  -5.19c
iter:  61 11:43:41  -250.756745c -6.98  -5.41c
iter:  62 11:47:43  -250.756745c -7.05  -5.60c
iter:  63 11:51:36  -250.756745c -7.09  -5.62c
iter:  64 11:55:18  -250.756745c -7.28  -5.56c
Writing to output.gpw (mode='')

iter:  65 11:59:29  -250.756745c -7.45c -5.57c

Converged after 65 iterations.

Dipole moment: (-1.621908, -1.621908, 0.395285) |e|*Ang

Energy contributions relative to reference atoms: (reference = -11745.526041)

Kinetic:        +97.612199
Potential:      -83.136137
External:        +0.000000
XC:            -265.734233
Entropy (-ST):   -0.181530
Local:           +0.592191
--------------------------
Free energy:   -250.847510
Extrapolated:  -250.756745

Dipole-layer corrected work functions: 3.401513, 2.641639 eV

Showing only first 2 kpts
 Kpt  Band  Eigenvalues  Occupancy
  0    23     -3.40969    1.99915
  0    24     -3.28912    1.99056
  0    25     -3.10609    1.68851
  0    26     -2.91254    0.20299

  1    23     -3.43519    1.99949
  1    24     -3.14615    1.84709
  1    25     -3.10266    1.67005
  1    26     -3.01908    0.97506


Fermi level: -3.02158

No gap

Forces in eV/Ang:
  0 Li    0.01653    0.01653   -0.32254
  1 Li   -0.02478    0.01249   -0.32910
  2 Li    0.00633   -0.00469   -0.34827
  3 Li    0.01249   -0.02478   -0.32910
  4 Li    0.00333    0.00333   -0.29970
  5 Li   -0.00132    0.00423   -0.27697
  6 Li   -0.00469    0.00633   -0.34827
  7 Li    0.00423   -0.00132   -0.27697
  8 Li   -0.00060   -0.00060   -0.27061
  9 Li   -0.05806   -0.05806    0.30800
 10 Li    0.04447   -0.22984    0.38304
 11 Li    0.01702    0.00747    0.25768
 12 Li   -0.22984    0.04447    0.38304
 13 Li    0.19359    0.19359    0.31209
 14 Li   -0.02234   -0.09494    0.47845
 15 Li    0.00747    0.01702    0.25768
 16 Li   -0.09494   -0.02234    0.47845
 17 Li   -0.03423   -0.03423    0.12409
 18 Li   -0.05329   -0.05329    0.02487
 19 Li   -0.02474    0.06009   -0.02156
 20 Li   -0.00927    0.03247    0.01608
 21 Li    0.06009   -0.02474   -0.02156
 22 Li    0.05469    0.05469    0.02130
 23 Li    0.03382   -0.03132   -0.05425
 24 Li    0.03247   -0.00927    0.01608
 25 Li   -0.03132    0.03382   -0.05425
 26 Li   -0.02072   -0.02072    0.00906
 27 Li    0.01244    0.01244    0.03436
 28 Li    0.04217   -0.01432    0.03187
 29 Li    0.01938   -0.01358    0.01292
 30 Li   -0.01432    0.04217    0.03187
 31 Li    0.02338    0.02338   -0.01952
 32 Li   -0.01541   -0.01015   -0.04414
 33 Li   -0.01358    0.01938    0.01292
 34 Li   -0.01015   -0.01541   -0.04414
 35 Li    0.02808    0.02808   -0.03356
 36 N     0.03520    0.03520   -0.07697
 37 N     0.00583    0.00583   -0.00379
 38 N    -0.06762   -0.06762    0.03644

System changes: positions 

Initializing position-dependent things.

Density initialized from wave functions
       .-----------------------.  
      /|                       |  
     / |                       |  
    /  |                       |  
   /   |                       |  
  /    |                       |  
 *     |                       |  
 |     |                       |  
 |     |                       |  
 |     |                       |  
 |     |                     Li|  
 |     |                       |  
 |     |               Li   N  |  
 |     |   Li    Li       Li   |  
 |     |Li     Li   Li         |  
 |     |           LiN    Li   |  
 |     |         Li            |  
 | Li  Li  Li          Li      |  
 |     |                       |  
 |   LLi     LLi     LLi       |  
 |     |  Li      Li      Li   |  
 | Li  |   Li      Li          |  
 |     |Li      Li      Li     |  
 Li    | Li      Li            |  
 |    Li      Li      Li       |  
 |     |                       |  
 |     |                       |  
 |     |                       |  
 |     |                       |  
 |     |                       |  
 |     |                       |  
 |     .-----------------------.  
 |    /                       /   
 |   /                       /    
 |  /                       /     
 | /                       /      
 |/                       /       
 *-----------------------*        

Positions:
   0 Li     1.617037    1.617037   10.000000    ( 0.0000,  0.0000,  0.0000)
   1 Li     4.851111    1.617037   10.000000    ( 0.0000,  0.0000,  0.0000)
   2 Li     8.085185    1.617037   10.000000    ( 0.0000,  0.0000,  0.0000)
   3 Li     1.617037    4.851111   10.000000    ( 0.0000,  0.0000,  0.0000)
   4 Li     4.851111    4.851111   10.000000    ( 0.0000,  0.0000,  0.0000)
   5 Li     8.085185    4.851111   10.000000    ( 0.0000,  0.0000,  0.0000)
   6 Li     1.617037    8.085185   10.000000    ( 0.0000,  0.0000,  0.0000)
   7 Li     4.851111    8.085185   10.000000    ( 0.0000,  0.0000,  0.0000)
   8 Li     8.085185    8.085185   10.000000    ( 0.0000,  0.0000,  0.0000)
   9 Li     0.000000    0.000000   11.617037    ( 0.0000,  0.0000,  0.0000)
  10 Li     3.234074    0.000000   11.617037    ( 0.0000,  0.0000,  0.0000)
  11 Li     6.468148    0.000000   11.617037    ( 0.0000,  0.0000,  0.0000)
  12 Li     0.000000    3.234074   11.617037    ( 0.0000,  0.0000,  0.0000)
  13 Li     3.234074    3.234074   11.617037    ( 0.0000,  0.0000,  0.0000)
  14 Li     6.468148    3.234074   11.617037    ( 0.0000,  0.0000,  0.0000)
  15 Li     0.000000    6.468148   11.617037    ( 0.0000,  0.0000,  0.0000)
  16 Li     3.234074    6.468148   11.617037    ( 0.0000,  0.0000,  0.0000)
  17 Li     6.468148    6.468148   11.617037    ( 0.0000,  0.0000,  0.0000)
  18 Li     1.724225    1.724225   13.201318    ( 0.0000,  0.0000,  0.0000)
  19 Li     4.924909    1.104850   13.753723    ( 0.0000,  0.0000,  0.0000)
  20 Li     8.133784    0.762576   14.264098    ( 0.0000,  0.0000,  0.0000)
  21 Li     1.104850    4.924909   13.753723    ( 0.0000,  0.0000,  0.0000)
  22 Li     5.021678    5.021678   14.018779    ( 0.0000,  0.0000,  0.0000)
  23 Li     7.705572    5.293874   13.657207    ( 0.0000,  0.0000,  0.0000)
  24 Li     0.762576    8.133784   14.264098    ( 0.0000,  0.0000,  0.0000)
  25 Li     5.293874    7.705572   13.657207    ( 0.0000,  0.0000,  0.0000)
  26 Li    10.324621   10.324621   15.474056    ( 0.0000,  0.0000,  0.0000)
  27 Li    -0.705192   -0.705192   17.168873    ( 0.0000,  0.0000,  0.0000)
  28 Li     4.817720    2.766469   16.676660    ( 0.0000,  0.0000,  0.0000)
  29 Li     6.846882   -1.196810   15.569117    ( 0.0000,  0.0000,  0.0000)
  30 Li     2.766469    4.817720   16.676660    ( 0.0000,  0.0000,  0.0000)
  31 Li     3.350767    3.350767   14.740454    ( 0.0000,  0.0000,  0.0000)
  32 Li     6.411866    4.849299   15.931709    ( 0.0000,  0.0000,  0.0000)
  33 Li    -1.196810    6.846882   15.569117    ( 0.0000,  0.0000,  0.0000)
  34 Li     4.849299    6.411866   15.931709    ( 0.0000,  0.0000,  0.0000)
  35 Li     7.934732    7.934732   13.599706    ( 0.0000,  0.0000,  0.0000)
  36 N      8.888776    8.888776   15.326940    ( 0.0000,  0.0000,  0.0000)
  37 N      4.447103    4.447103   15.919892    ( 0.0000,  0.0000,  0.0000)
  38 N      6.574431    6.574431   14.736517    ( 0.0000,  0.0000,  0.0000)

Unit cell:
           periodic     x           y           z      points  spacing
  1. axis:    yes    9.702222    0.000000    0.000000    60     0.1617
  2. axis:    yes    0.000000    9.702222    0.000000    60     0.1617
  3. axis:    no     0.000000    0.000000   24.851111   156     0.1593

  Lengths:   9.702222   9.702222  24.851111
  Angles:   90.000000  90.000000  90.000000

Effective grid spacing dv^(1/3) = 0.1609

     iter     time        total  log10-change:
                         energy  eigst   dens
iter:   1 12:04:33  -250.772596  -1.09
iter:   2 12:06:36  -250.757584  -1.77  -1.86
iter:   3 12:08:53  -250.755989c -2.32  -2.22
iter:   4 12:12:08  -250.755433c -2.50  -2.52
Writing to output.gpw (mode='')

iter:   5 12:15:23  -250.755680c -2.61  -2.83
iter:   6 12:17:47  -250.755694c -3.13  -2.86
iter:   7 12:21:03  -250.755883c -2.85  -3.00
iter:   8 12:23:33  -250.755780c -3.57  -3.06
iter:   9 12:26:07  -250.755707c -3.56  -3.21
Writing to output.gpw (mode='')

iter:  10 12:29:31  -250.755738c -4.08  -3.43
iter:  11 12:33:03  -250.755752c -4.38  -3.46
iter:  12 12:36:56  -250.755754c -4.46  -3.47
iter:  13 12:42:11  -250.755771c -4.50  -3.58
iter:  14 12:47:36  -250.755766c -4.89  -3.62
Writing to output.gpw (mode='')

iter:  15 12:52:54  -250.755770c -4.89  -3.65
iter:  16 12:56:27  -250.755772c -5.11  -3.72
iter:  17 12:59:24  -250.755773c -5.17  -3.79
iter:  18 13:04:20  -250.755769c -5.31  -3.99
iter:  19 13:06:46  -250.755771c -5.71  -4.24c
Writing to output.gpw (mode='')

iter:  20 13:09:13  -250.755780c -5.56  -4.24c
iter:  21 13:11:44  -250.755775c -5.75  -4.31c
iter:  22 13:14:11  -250.755774c -5.77  -4.49c
iter:  23 13:18:41  -250.755775c -6.05  -4.47c
iter:  24 13:21:21  -250.755775c -6.13  -4.63c
Writing to output.gpw (mode='')

iter:  25 13:24:39  -250.755775c -6.40  -4.79c
iter:  26 13:28:03  -250.755776c -6.49  -4.81c
iter:  27 13:33:46  -250.755776c -6.59  -4.82c
iter:  28 13:39:12  -250.755775c -6.69  -4.83c
iter:  29 13:44:23  -250.755775c -6.83  -4.95c
Writing to output.gpw (mode='')

iter:  30 13:49:11  -250.755776c -6.97  -5.13c
iter:  31 13:53:55  -250.755775c -7.16  -5.10c
iter:  32 13:59:29  -250.755776c -6.96  -5.07c
iter:  33 14:06:00  -250.755776c -7.23  -5.02c
iter:  34 14:09:39  -250.755776c -7.45c -5.02c

Converged after 34 iterations.

Dipole moment: (-1.816381, -1.816381, 0.396504) |e|*Ang

Energy contributions relative to reference atoms: (reference = -11745.526041)

Kinetic:        +97.948254
Potential:      -83.371271
External:        +0.000000
XC:            -265.834564
Entropy (-ST):   -0.181358
Local:           +0.592484
--------------------------
Free energy:   -250.846455
Extrapolated:  -250.755776

Dipole-layer corrected work functions: 3.401445, 2.639229 eV

Showing only first 2 kpts
 Kpt  Band  Eigenvalues  Occupancy
  0    23     -3.41103    1.99919
  0    24     -3.28736    1.99046
  0    25     -3.10345    1.68107
  0    26     -2.91377    0.21219

  1    23     -3.43381    1.99949
  1    24     -3.14564    1.84913
  1    25     -3.10352    1.68145
  1    26     -3.01927    0.98937


Fermi level: -3.02034

No gap
Writing to output.gpw (mode='')


Forces in eV/Ang:
  0 Li    0.01689    0.01689   -0.32283
  1 Li   -0.02462    0.01253   -0.32938
  2 Li    0.00632   -0.00465   -0.34985
  3 Li    0.01253   -0.02462   -0.32938
  4 Li    0.00312    0.00312   -0.30007
  5 Li   -0.00099    0.00483   -0.27681
  6 Li   -0.00465    0.00632   -0.34985
  7 Li    0.00483   -0.00099   -0.27681
  8 Li   -0.00092   -0.00092   -0.27256
  9 Li   -0.06084   -0.06084    0.32134
 10 Li    0.04335   -0.22750    0.38661
 11 Li    0.01778    0.00475    0.26002
 12 Li   -0.22750    0.04335    0.38661
 13 Li    0.18832    0.18832    0.31530
 14 Li   -0.02318   -0.09525    0.47689
 15 Li    0.00475    0.01778    0.26002
 16 Li   -0.09525   -0.02318    0.47689
 17 Li   -0.03496   -0.03496    0.12640
 18 Li   -0.04213   -0.04213    0.00504
 19 Li   -0.02570    0.05718   -0.02183
 20 Li   -0.03737    0.03177   -0.01249
 21 Li    0.05718   -0.02570   -0.02183
 22 Li    0.05628    0.05628    0.01925
 23 Li    0.03139   -0.02705   -0.05144
 24 Li    0.03177   -0.03737   -0.01249
 25 Li   -0.02705    0.03139   -0.05144
 26 Li    0.02302    0.02302    0.04464
 27 Li    0.00590    0.00590    0.08290
 28 Li    0.04084   -0.01060    0.02857
 29 Li    0.01902   -0.01508    0.01270
 30 Li   -0.01060    0.04084    0.02857
 31 Li    0.02063    0.02063   -0.01682
 32 Li   -0.01686   -0.00866   -0.04315
 33 Li   -0.01508    0.01902    0.01270
 34 Li   -0.00866   -0.01686   -0.04315
 35 Li    0.03766    0.03766   -0.03442
 36 N     0.08220    0.08220   -0.12124
 37 N     0.00538    0.00538   -0.01694
 38 N    -0.00652   -0.00652    0.03070

System changes: positions 

Initializing position-dependent things.

Density initialized from wave functions
       .-----------------------.  
      /|                       |  
     / |                       |  
    /  |                       |  
   /   |                       |  
  /    |                       |  
 *     |                       |  
 |     |                       |  
 |     |                       |  
 |     |                       |  
 |     |                     Li|  
 |     |                       |  
 |     |               Li    N |  
 |     |   Li    Li       Li   |  
 |     |Li     Li   Li         |  
 |     |           LiN    Li   |  
 |     |         Li            |  
 | Li  Li  Li          Li      |  
 |     |                       |  
 |   LLi     LLi     LLi       |  
 |     |  Li      Li      Li   |  
 | Li  |   Li      Li          |  
 |     |Li      Li      Li     |  
 Li    | Li      Li            |  
 |    Li      Li      Li       |  
 |     |                       |  
 |     |                       |  
 |     |                       |  
 |     |                       |  
 |     |                       |  
 |     |                       |  
 |     .-----------------------.  
 |    /                       /   
 |   /                       /    
 |  /                       /     
 | /                       /      
 |/                       /       
 *-----------------------*        

Positions:
   0 Li     1.617037    1.617037   10.000000    ( 0.0000,  0.0000,  0.0000)
   1 Li     4.851111    1.617037   10.000000    ( 0.0000,  0.0000,  0.0000)
   2 Li     8.085185    1.617037   10.000000    ( 0.0000,  0.0000,  0.0000)
   3 Li     1.617037    4.851111   10.000000    ( 0.0000,  0.0000,  0.0000)
   4 Li     4.851111    4.851111   10.000000    ( 0.0000,  0.0000,  0.0000)
   5 Li     8.085185    4.851111   10.000000    ( 0.0000,  0.0000,  0.0000)
   6 Li     1.617037    8.085185   10.000000    ( 0.0000,  0.0000,  0.0000)
   7 Li     4.851111    8.085185   10.000000    ( 0.0000,  0.0000,  0.0000)
   8 Li     8.085185    8.085185   10.000000    ( 0.0000,  0.0000,  0.0000)
   9 Li     0.000000    0.000000   11.617037    ( 0.0000,  0.0000,  0.0000)
  10 Li     3.234074    0.000000   11.617037    ( 0.0000,  0.0000,  0.0000)
  11 Li     6.468148    0.000000   11.617037    ( 0.0000,  0.0000,  0.0000)
  12 Li     0.000000    3.234074   11.617037    ( 0.0000,  0.0000,  0.0000)
  13 Li     3.234074    3.234074   11.617037    ( 0.0000,  0.0000,  0.0000)
  14 Li     6.468148    3.234074   11.617037    ( 0.0000,  0.0000,  0.0000)
  15 Li     0.000000    6.468148   11.617037    ( 0.0000,  0.0000,  0.0000)
  16 Li     3.234074    6.468148   11.617037    ( 0.0000,  0.0000,  0.0000)
  17 Li     6.468148    6.468148   11.617037    ( 0.0000,  0.0000,  0.0000)
  18 Li     1.727305    1.727305   13.197071    ( 0.0000,  0.0000,  0.0000)
  19 Li     4.922627    1.103157   13.753108    ( 0.0000,  0.0000,  0.0000)
  20 Li     8.142831    0.770119   14.250940    ( 0.0000,  0.0000,  0.0000)
  21 Li     1.103157    4.922627   13.753108    ( 0.0000,  0.0000,  0.0000)
  22 Li     5.025633    5.025633   14.017718    ( 0.0000,  0.0000,  0.0000)
  23 Li     7.707676    5.296663   13.655553    ( 0.0000,  0.0000,  0.0000)
  24 Li     0.770119    8.142831   14.250940    ( 0.0000,  0.0000,  0.0000)
  25 Li     5.296663    7.707676   13.655553    ( 0.0000,  0.0000,  0.0000)
  26 Li    10.339609   10.339609   15.492130    ( 0.0000,  0.0000,  0.0000)
  27 Li    -0.709381   -0.709381   17.171341    ( 0.0000,  0.0000,  0.0000)
  28 Li     4.823863    2.770055   16.684369    ( 0.0000,  0.0000,  0.0000)
  29 Li     6.849238   -1.192598   15.565992    ( 0.0000,  0.0000,  0.0000)
  30 Li     2.770055    4.823863   16.684369    ( 0.0000,  0.0000,  0.0000)
  31 Li     3.353244    3.353244   14.749510    ( 0.0000,  0.0000,  0.0000)
  32 Li     6.415058    4.853348   15.931348    ( 0.0000,  0.0000,  0.0000)
  33 Li    -1.192598    6.849238   15.565992    ( 0.0000,  0.0000,  0.0000)
  34 Li     4.853348    6.415058   15.931348    ( 0.0000,  0.0000,  0.0000)
  35 Li     7.942511    7.942511   13.600183    ( 0.0000,  0.0000,  0.0000)
  36 N      8.894842    8.894842   15.320904    ( 0.0000,  0.0000,  0.0000)
  37 N      4.450820    4.450820   15.922341    ( 0.0000,  0.0000,  0.0000)
  38 N      6.577631    6.577631   14.738284    ( 0.0000,  0.0000,  0.0000)

Unit cell:
           periodic     x           y           z      points  spacing
  1. axis:    yes    9.702222    0.000000    0.000000    60     0.1617
  2. axis:    yes    0.000000    9.702222    0.000000    60     0.1617
  3. axis:    no     0.000000    0.000000   24.851111   156     0.1593

  Lengths:   9.702222   9.702222  24.851111
  Angles:   90.000000  90.000000  90.000000

Effective grid spacing dv^(1/3) = 0.1609

     iter     time        total  log10-change:
                         energy  eigst   dens
iter:   1 14:12:11  -250.765847  -1.34
iter:   2 14:13:42  -250.760433  -1.99  -2.03
iter:   3 14:15:15  -250.759255c -2.55  -2.33
iter:   4 14:16:56  -250.758685c -2.69  -2.63
Writing to output.gpw (mode='')

iter:   5 14:17:56  -250.758676c -2.80  -2.81
iter:   6 14:19:09  -250.758682c -3.37  -2.93
iter:   7 14:20:26  -250.758643c -3.12  -3.10
iter:   8 14:22:15  -250.758686c -3.81  -3.25
iter:   9 14:23:40  -250.758748c -3.75  -3.39
Writing to output.gpw (mode='')

iter:  10 14:25:33  -250.758724c -4.37  -3.52
iter:  11 14:27:43  -250.758715c -4.58  -3.56
iter:  12 14:29:20  -250.758715c -4.74  -3.56
iter:  13 14:30:29  -250.758708c -4.69  -3.54
iter:  14 14:31:28  -250.758740c -4.70  -3.64
Writing to output.gpw (mode='')

iter:  15 14:33:07  -250.758737c -5.09  -3.80
iter:  16 14:34:23  -250.758733c -5.27  -3.81
iter:  17 14:36:05  -250.758738c -5.24  -3.89
iter:  18 14:38:02  -250.758742c -5.66  -4.06c
iter:  19 14:39:15  -250.758741c -5.82  -4.13c
Writing to output.gpw (mode='')

iter:  20 14:40:45  -250.758739c -5.96  -4.24c
iter:  21 14:42:05  -250.758737c -6.00  -4.34c
iter:  22 14:43:33  -250.758739c -6.15  -4.40c
iter:  23 14:45:02  -250.758737c -6.24  -4.55c
iter:  24 14:47:15  -250.758735c -6.33  -4.66c
Writing to output.gpw (mode='')

iter:  25 14:48:38  -250.758736c -6.74  -4.66c
iter:  26 14:49:57  -250.758737c -6.70  -4.69c
iter:  27 14:52:01  -250.758735c -6.58  -4.81c
iter:  28 14:53:53  -250.758736c -7.05  -4.83c
iter:  29 14:55:29  -250.758737c -6.99  -4.92c
Writing to output.gpw (mode='')

iter:  30 14:56:18  -250.758737c -7.30  -4.97c
iter:  31 14:57:14  -250.758736c -7.23  -5.00c
iter:  32 14:58:02  -250.758737c -7.31  -5.09c
iter:  33 14:58:47  -250.758738c -7.10  -5.08c
iter:  34 14:59:33  -250.758737c -7.41c -5.07c

Converged after 34 iterations.

Dipole moment: (-1.663548, -1.663548, 0.395105) |e|*Ang

Energy contributions relative to reference atoms: (reference = -11745.526041)

Kinetic:        +97.483012
Potential:      -83.047155
External:        +0.000000
XC:            -265.695856
Entropy (-ST):   -0.181640
Local:           +0.592082
--------------------------
Free energy:   -250.849556
Extrapolated:  -250.758737

Dipole-layer corrected work functions: 3.401653, 2.642126 eV

Showing only first 2 kpts
 Kpt  Band  Eigenvalues  Occupancy
  0    23     -3.41060    1.99916
  0    24     -3.28906    1.99049
  0    25     -3.10528    1.68256
  0    26     -2.91326    0.20447

  1    23     -3.43572    1.99949
  1    24     -3.14653    1.84728
  1    25     -3.10415    1.67650
  1    26     -3.01965    0.97765


Fermi level: -3.02189

No gap
Writing to output.gpw (mode='')


Forces in eV/Ang:
  0 Li    0.01668    0.01668   -0.32209
  1 Li   -0.02445    0.01218   -0.32900
  2 Li    0.00611   -0.00450   -0.34851
  3 Li    0.01218   -0.02445   -0.32900
  4 Li    0.00349    0.00349   -0.29928
  5 Li   -0.00113    0.00420   -0.27703
  6 Li   -0.00450    0.00611   -0.34851
  7 Li    0.00420   -0.00113   -0.27703
  8 Li   -0.00070   -0.00070   -0.27161
  9 Li   -0.05887   -0.05887    0.31263
 10 Li    0.04391   -0.22959    0.38375
 11 Li    0.01771    0.00591    0.25774
 12 Li   -0.22959    0.04391    0.38375
 13 Li    0.19204    0.19204    0.31447
 14 Li   -0.02220   -0.09493    0.47771
 15 Li    0.00591    0.01771    0.25774
 16 Li   -0.09493   -0.02220    0.47771
 17 Li   -0.03246   -0.03246    0.12562
 18 Li   -0.04681   -0.04681    0.01757
 19 Li   -0.02590    0.06128   -0.01890
 20 Li   -0.01909    0.02409    0.01038
 21 Li    0.06128   -0.02590   -0.01890
 22 Li    0.04701    0.04701    0.02780
 23 Li    0.02924   -0.02270   -0.04901
 24 Li    0.02409   -0.01909    0.01038
 25 Li   -0.02270    0.02924   -0.04901
 26 Li   -0.01333   -0.01333    0.02112
 27 Li    0.01134    0.01134    0.03246
 28 Li    0.03440    0.00380    0.01914
 29 Li    0.02583   -0.01028    0.00988
 30 Li    0.00380    0.03440    0.01914
 31 Li    0.01572    0.01572   -0.02718
 32 Li   -0.01377   -0.00997   -0.03877
 33 Li   -0.01028    0.02583    0.00988
 34 Li   -0.00997   -0.01377   -0.03877
 35 Li    0.02589    0.02589   -0.04092
 36 N     0.05476    0.05476   -0.03345
 37 N     0.00857    0.00857    0.00495
 38 N    -0.03777   -0.03777    0.01115

System changes: positions 

Initializing position-dependent things.

Density initialized from wave functions
       .-----------------------.  
      /|                       |  
     / |                       |  
    /  |                       |  
   /   |                       |  
  /    |                       |  
 *     |                       |  
 |     |                       |  
 |     |                       |  
 |     |                       |  
 |     |                     Li|  
 |     |                       |  
 |     |               Li    N |  
 |     |   Li    Li       Li   |  
 |     |Li     Li   Li         |  
 |     |           LiN    Li   |  
 |     |         Li            |  
 | Li  Li  Li          Li      |  
 |     |                       |  
 |   LLi     LLi     LLi       |  
 |     |  Li      Li      Li   |  
 | Li  |   Li      Li          |  
 |     |Li      Li      Li     |  
 Li    | Li      Li            |  
 |    Li      Li      Li       |  
 |     |                       |  
 |     |                       |  
 |     |                       |  
 |     |                       |  
 |     |                       |  
 |     |                       |  
 |     .-----------------------.  
 |    /                       /   
 |   /                       /    
 |  /                       /     
 | /                       /      
 |/                       /       
 *-----------------------*        

Positions:
   0 Li     1.617037    1.617037   10.000000    ( 0.0000,  0.0000,  0.0000)
   1 Li     4.851111    1.617037   10.000000    ( 0.0000,  0.0000,  0.0000)
   2 Li     8.085185    1.617037   10.000000    ( 0.0000,  0.0000,  0.0000)
   3 Li     1.617037    4.851111   10.000000    ( 0.0000,  0.0000,  0.0000)
   4 Li     4.851111    4.851111   10.000000    ( 0.0000,  0.0000,  0.0000)
   5 Li     8.085185    4.851111   10.000000    ( 0.0000,  0.0000,  0.0000)
   6 Li     1.617037    8.085185   10.000000    ( 0.0000,  0.0000,  0.0000)
   7 Li     4.851111    8.085185   10.000000    ( 0.0000,  0.0000,  0.0000)
   8 Li     8.085185    8.085185   10.000000    ( 0.0000,  0.0000,  0.0000)
   9 Li     0.000000    0.000000   11.617037    ( 0.0000,  0.0000,  0.0000)
  10 Li     3.234074    0.000000   11.617037    ( 0.0000,  0.0000,  0.0000)
  11 Li     6.468148    0.000000   11.617037    ( 0.0000,  0.0000,  0.0000)
  12 Li     0.000000    3.234074   11.617037    ( 0.0000,  0.0000,  0.0000)
  13 Li     3.234074    3.234074   11.617037    ( 0.0000,  0.0000,  0.0000)
  14 Li     6.468148    3.234074   11.617037    ( 0.0000,  0.0000,  0.0000)
  15 Li     0.000000    6.468148   11.617037    ( 0.0000,  0.0000,  0.0000)
  16 Li     3.234074    6.468148   11.617037    ( 0.0000,  0.0000,  0.0000)
  17 Li     6.468148    6.468148   11.617037    ( 0.0000,  0.0000,  0.0000)
  18 Li     1.727685    1.727685   13.194822    ( 0.0000,  0.0000,  0.0000)
  19 Li     4.922413    1.103501   13.751536    ( 0.0000,  0.0000,  0.0000)
  20 Li     8.141520    0.772553   14.252934    ( 0.0000,  0.0000,  0.0000)
  21 Li     1.103501    4.922413   13.751536    ( 0.0000,  0.0000,  0.0000)
  22 Li     5.028853    5.028853   14.015541    ( 0.0000,  0.0000,  0.0000)
  23 Li     7.706771    5.298275   13.653725    ( 0.0000,  0.0000,  0.0000)
  24 Li     0.772553    8.141520   14.252934    ( 0.0000,  0.0000,  0.0000)
  25 Li     5.298275    7.706771   13.653725    ( 0.0000,  0.0000,  0.0000)
  26 Li    10.345972   10.345972   15.498358    ( 0.0000,  0.0000,  0.0000)
  27 Li    -0.709061   -0.709061   17.168914    ( 0.0000,  0.0000,  0.0000)
  28 Li     4.829724    2.772645   16.690238    ( 0.0000,  0.0000,  0.0000)
  29 Li     6.848117   -1.193798   15.564938    ( 0.0000,  0.0000,  0.0000)
  30 Li     2.772645    4.829724   16.690238    ( 0.0000,  0.0000,  0.0000)
  31 Li     3.354380    3.354380   14.753573    ( 0.0000,  0.0000,  0.0000)
  32 Li     6.416376    4.853897   15.928313    ( 0.0000,  0.0000,  0.0000)
  33 Li    -1.193798    6.848117   15.564938    ( 0.0000,  0.0000,  0.0000)
  34 Li     4.853897    6.416376   15.928313    ( 0.0000,  0.0000,  0.0000)
  35 Li     7.948248    7.948248   13.599665    ( 0.0000,  0.0000,  0.0000)
  36 N      8.897607    8.897607   15.318308    ( 0.0000,  0.0000,  0.0000)
  37 N      4.452756    4.452756   15.922297    ( 0.0000,  0.0000,  0.0000)
  38 N      6.577438    6.577438   14.738305    ( 0.0000,  0.0000,  0.0000)

Unit cell:
           periodic     x           y           z      points  spacing
  1. axis:    yes    9.702222    0.000000    0.000000    60     0.1617
  2. axis:    yes    0.000000    9.702222    0.000000    60     0.1617
  3. axis:    no     0.000000    0.000000   24.851111   156     0.1593

  Lengths:   9.702222   9.702222  24.851111
  Angles:   90.000000  90.000000  90.000000

Effective grid spacing dv^(1/3) = 0.1609

     iter     time        total  log10-change:
                         energy  eigst   dens
iter:   1 15:00:29  -250.760861  -1.98
iter:   2 15:01:18  -250.760406  -2.65  -2.45
iter:   3 15:02:05  -250.760297c -3.14  -2.76
iter:   4 15:03:08  -250.760169c -3.25  -3.00
Writing to output.gpw (mode='')

iter:   5 15:04:02  -250.760185c -3.38  -3.15
iter:   6 15:05:19  -250.760209c -3.94  -3.19
iter:   7 15:06:07  -250.760191c -3.83  -3.40
iter:   8 15:07:06  -250.760189c -4.28  -3.62
iter:   9 15:07:52  -250.760190c -4.52  -3.68
Writing to output.gpw (mode='')

iter:  10 15:08:42  -250.760201c -4.81  -3.75
iter:  11 15:09:59  -250.760214c -4.78  -3.81
iter:  12 15:11:00  -250.760204c -5.04  -3.96
iter:  13 15:12:20  -250.760202c -5.24  -4.00c
iter:  14 15:13:22  -250.760206c -5.61  -4.09c
Writing to output.gpw (mode='')

iter:  15 15:14:24  -250.760209c -5.61  -4.10c
iter:  16 15:15:26  -250.760206c -5.85  -4.13c
iter:  17 15:16:13  -250.760205c -5.92  -4.20c
iter:  18 15:17:01  -250.760204c -6.10  -4.34c
iter:  19 15:17:49  -250.760208c -6.04  -4.40c
Writing to output.gpw (mode='')

iter:  20 15:18:46  -250.760209c -6.37  -4.71c
iter:  21 15:19:56  -250.760208c -6.59  -4.76c
iter:  22 15:21:02  -250.760207c -6.70  -4.79c
iter:  23 15:22:05  -250.760207c -6.77  -4.99c
iter:  24 15:23:46  -250.760207c -6.98  -5.09c
Writing to output.gpw (mode='')

iter:  25 15:24:35  -250.760207c -7.12  -5.11c
iter:  26 15:25:27  -250.760208c -7.25  -5.12c
iter:  27 15:26:27  -250.760208c -7.31  -5.22c
iter:  28 15:27:45  -250.760208c -7.59c -5.38c

Converged after 28 iterations.

Dipole moment: (-1.607429, -1.607429, 0.394391) |e|*Ang

Energy contributions relative to reference atoms: (reference = -11745.526041)

Kinetic:        +97.359933
Potential:      -82.964151
External:        +0.000000
XC:            -265.657330
Entropy (-ST):   -0.181657
Local:           +0.592169
--------------------------
Free energy:   -250.851036
Extrapolated:  -250.760208

Dipole-layer corrected work functions: 3.401596, 2.643441 eV

Showing only first 2 kpts
 Kpt  Band  Eigenvalues  Occupancy
  0    23     -3.41060    1.99915
  0    24     -3.28957    1.99046
  0    25     -3.10609    1.68354
  0    26     -2.91257    0.19969

  1    23     -3.43658    1.99949
  1    24     -3.14600    1.84398
  1    25     -3.10489    1.67711
  1    26     -3.01951    0.96994


Fermi level: -3.02252

No gap
Writing to output.gpw (mode='')


Forces in eV/Ang:
  0 Li    0.01675    0.01675   -0.32158
  1 Li   -0.02430    0.01203   -0.32887
  2 Li    0.00592   -0.00453   -0.34821
  3 Li    0.01203   -0.02430   -0.32887
  4 Li    0.00366    0.00366   -0.29839
  5 Li   -0.00120    0.00412   -0.27704
  6 Li   -0.00453    0.00592   -0.34821
  7 Li    0.00412   -0.00120   -0.27704
  8 Li   -0.00079   -0.00079   -0.27150
  9 Li   -0.05899   -0.05899    0.31204
 10 Li    0.04478   -0.23061    0.38213
 11 Li    0.01810    0.00643    0.25707
 12 Li   -0.23061    0.04478    0.38213
 13 Li    0.19290    0.19290    0.31452
 14 Li   -0.02170   -0.09467    0.47751
 15 Li    0.00643    0.01810    0.25707
 16 Li   -0.09467   -0.02170    0.47751
 17 Li   -0.03054   -0.03054    0.12296
 18 Li   -0.04691   -0.04691    0.02182
 19 Li   -0.02641    0.06239   -0.01604
 20 Li   -0.01001    0.02683    0.01406
 21 Li    0.06239   -0.02641   -0.01604
 22 Li    0.03668    0.03668    0.03275
 23 Li    0.03524   -0.02098   -0.05017
 24 Li    0.02683   -0.01001    0.01406
 25 Li   -0.02098    0.03524   -0.05017
 26 Li   -0.02581   -0.02581    0.00673
 27 Li    0.01104    0.01104    0.03290
 28 Li    0.02583    0.01669    0.00748
 29 Li    0.03109   -0.00648    0.00791
 30 Li    0.01669    0.02583    0.00748
 31 Li    0.01505    0.01505   -0.02761
 32 Li   -0.01449   -0.00925   -0.03119
 33 Li   -0.00648    0.03109    0.00791
 34 Li   -0.00925   -0.01449   -0.03119
 35 Li    0.01797    0.01797   -0.04344
 36 N     0.04272    0.04272   -0.02813
 37 N    -0.00433   -0.00433    0.02690
 38 N    -0.02685   -0.02685    0.00307

System changes: positions 

Initializing position-dependent things.

Density initialized from wave functions
       .-----------------------.  
      /|                       |  
     / |                       |  
    /  |                       |  
   /   |                       |  
  /    |                       |  
 *     |                       |  
 |     |                       |  
 |     |                       |  
 |     |                       |  
 |     |                     Li|  
 |     |                       |  
 |     |               Li    N |  
 |     |   Li    Li       Li   |  
 |     |Li     Li   Li         |  
 |     |           LiN    Li   |  
 |     |         Li            |  
 | Li  Li  Li          Li      |  
 |     |                       |  
 |   LLi     LLi     LLi       |  
 |     |  Li      Li      Li   |  
 | Li  |   Li      Li          |  
 |     |Li      Li      Li     |  
 Li    | Li      Li            |  
 |    Li      Li      Li       |  
 |     |                       |  
 |     |                       |  
 |     |                       |  
 |     |                       |  
 |     |                       |  
 |     |                       |  
 |     .-----------------------.  
 |    /                       /   
 |   /                       /    
 |  /                       /     
 | /                       /      
 |/                       /       
 *-----------------------*        

Positions:
   0 Li     1.617037    1.617037   10.000000    ( 0.0000,  0.0000,  0.0000)
   1 Li     4.851111    1.617037   10.000000    ( 0.0000,  0.0000,  0.0000)
   2 Li     8.085185    1.617037   10.000000    ( 0.0000,  0.0000,  0.0000)
   3 Li     1.617037    4.851111   10.000000    ( 0.0000,  0.0000,  0.0000)
   4 Li     4.851111    4.851111   10.000000    ( 0.0000,  0.0000,  0.0000)
   5 Li     8.085185    4.851111   10.000000    ( 0.0000,  0.0000,  0.0000)
   6 Li     1.617037    8.085185   10.000000    ( 0.0000,  0.0000,  0.0000)
   7 Li     4.851111    8.085185   10.000000    ( 0.0000,  0.0000,  0.0000)
   8 Li     8.085185    8.085185   10.000000    ( 0.0000,  0.0000,  0.0000)
   9 Li     0.000000    0.000000   11.617037    ( 0.0000,  0.0000,  0.0000)
  10 Li     3.234074    0.000000   11.617037    ( 0.0000,  0.0000,  0.0000)
  11 Li     6.468148    0.000000   11.617037    ( 0.0000,  0.0000,  0.0000)
  12 Li     0.000000    3.234074   11.617037    ( 0.0000,  0.0000,  0.0000)
  13 Li     3.234074    3.234074   11.617037    ( 0.0000,  0.0000,  0.0000)
  14 Li     6.468148    3.234074   11.617037    ( 0.0000,  0.0000,  0.0000)
  15 Li     0.000000    6.468148   11.617037    ( 0.0000,  0.0000,  0.0000)
  16 Li     3.234074    6.468148   11.617037    ( 0.0000,  0.0000,  0.0000)
  17 Li     6.468148    6.468148   11.617037    ( 0.0000,  0.0000,  0.0000)
  18 Li     1.715232    1.715232   13.210644    ( 0.0000,  0.0000,  0.0000)
  19 Li     4.911402    1.094768   13.743079    ( 0.0000,  0.0000,  0.0000)
  20 Li     8.168464    0.792020   14.230684    ( 0.0000,  0.0000,  0.0000)
  21 Li     1.094768    4.911402   13.743079    ( 0.0000,  0.0000,  0.0000)
  22 Li     5.041068    5.041068   13.999250    ( 0.0000,  0.0000,  0.0000)
  23 Li     7.709427    5.292566   13.650001    ( 0.0000,  0.0000,  0.0000)
  24 Li     0.792020    8.168464   14.230684    ( 0.0000,  0.0000,  0.0000)
  25 Li     5.292566    7.709427   13.650001    ( 0.0000,  0.0000,  0.0000)
  26 Li    10.348804   10.348804   15.494573    ( 0.0000,  0.0000,  0.0000)
  27 Li    -0.710861   -0.710861   17.163365    ( 0.0000,  0.0000,  0.0000)
  28 Li     4.840665    2.783273   16.685301    ( 0.0000,  0.0000,  0.0000)
  29 Li     6.852650   -1.184956   15.555754    ( 0.0000,  0.0000,  0.0000)
  30 Li     2.783273    4.840665   16.685301    ( 0.0000,  0.0000,  0.0000)
  31 Li     3.355379    3.355379   14.752236    ( 0.0000,  0.0000,  0.0000)
  32 Li     6.421957    4.860010   15.910723    ( 0.0000,  0.0000,  0.0000)
  33 Li    -1.184956    6.852650   15.555754    ( 0.0000,  0.0000,  0.0000)
  34 Li     4.860010    6.421957   15.910723    ( 0.0000,  0.0000,  0.0000)
  35 Li     7.954681    7.954681   13.590704    ( 0.0000,  0.0000,  0.0000)
  36 N      8.916128    8.916128   15.298150    ( 0.0000,  0.0000,  0.0000)
  37 N      4.460578    4.460578   15.903182    ( 0.0000,  0.0000,  0.0000)
  38 N      6.579896    6.579896   14.739404    ( 0.0000,  0.0000,  0.0000)

Unit cell:
           periodic     x           y           z      points  spacing
  1. axis:    yes    9.702222    0.000000    0.000000    60     0.1617
  2. axis:    yes    0.000000    9.702222    0.000000    60     0.1617
  3. axis:    no     0.000000    0.000000   24.851111   156     0.1593

  Lengths:   9.702222   9.702222  24.851111
  Angles:   90.000000  90.000000  90.000000

Effective grid spacing dv^(1/3) = 0.1609

     iter     time        total  log10-change:
                         energy  eigst   dens
iter:   1 15:28:55  -250.900108  -0.65
iter:   2 15:30:08  -250.805266  -1.12  -1.44
iter:   3 15:30:54  -250.774478  -2.00  -1.70
iter:   4 15:31:38  -250.765553  -2.12  -2.02
Writing to output.gpw (mode='')

iter:   5 15:32:22  -250.763340c -1.88  -2.20
iter:   6 15:33:15  -250.761943c -2.36  -2.39
iter:   7 15:34:12  -250.761991c -2.27  -2.66
iter:   8 15:35:29  -250.762181c -2.84  -2.73
iter:   9 15:36:43  -250.762234c -3.11  -2.95
Writing to output.gpw (mode='')

iter:  10 15:37:57  -250.762219c -3.45  -3.06
iter:  11 15:39:17  -250.762189c -3.72  -3.11
iter:  12 15:40:22  -250.762156c -3.73  -3.12
iter:  13 15:41:12  -250.762187c -4.10  -3.33
iter:  14 15:42:00  -250.762213c -4.29  -3.38
Writing to output.gpw (mode='')

iter:  15 15:42:54  -250.762239c -4.19  -3.48
iter:  16 15:43:50  -250.762241c -4.60  -3.63
iter:  17 15:45:27  -250.762232c -4.69  -3.69
iter:  18 15:46:30  -250.762229c -4.85  -3.79
iter:  19 15:47:24  -250.762224c -4.98  -3.85
Writing to output.gpw (mode='')

iter:  20 15:48:31  -250.762214c -5.04  -3.89
iter:  21 15:49:36  -250.762211c -5.35  -3.99
iter:  22 15:50:41  -250.762219c -5.46  -4.09c
iter:  23 15:52:22  -250.762222c -5.63  -4.27c
iter:  24 15:53:15  -250.762221c -5.69  -4.38c
Writing to output.gpw (mode='')

iter:  25 15:54:06  -250.762219c -5.90  -4.44c
iter:  26 15:55:23  -250.762218c -5.99  -4.48c
iter:  27 15:56:20  -250.762218c -6.22  -4.66c
iter:  28 15:57:07  -250.762219c -6.30  -4.72c
iter:  29 15:57:55  -250.762220c -6.37  -4.75c
Writing to output.gpw (mode='')

iter:  30 15:58:39  -250.762218c -6.42  -4.85c
iter:  31 16:00:21  -250.762218c -6.50  -4.92c
iter:  32 16:01:18  -250.762219c -6.67  -4.98c
iter:  33 16:02:22  -250.762219c -6.81  -4.97c
iter:  34 16:03:20  -250.762218c -6.82  -5.06c
Writing to output.gpw (mode='')

iter:  35 16:04:12  -250.762218c -6.97  -5.29c
iter:  36 16:05:23  -250.762218c -7.00  -5.34c
iter:  37 16:06:09  -250.762219c -7.11  -5.37c
iter:  38 16:07:02  -250.762219c -7.18  -5.42c
iter:  39 16:07:50  -250.762219c -7.23  -5.52c
Writing to output.gpw (mode='')

iter:  40 16:08:33  -250.762219c -7.30  -5.61c
iter:  41 16:09:39  -250.762219c -7.38  -5.68c
iter:  42 16:11:00  -250.762219c -7.32  -5.77c
iter:  43 16:11:44  -250.762219c -7.41c -5.82c

Converged after 43 iterations.

Dipole moment: (-1.312182, -1.312182, 0.393203) |e|*Ang

Energy contributions relative to reference atoms: (reference = -11745.526041)

Kinetic:        +97.240882
Potential:      -82.880775
External:        +0.000000
XC:            -265.623284
Entropy (-ST):   -0.182374
Local:           +0.592146
--------------------------
Free energy:   -250.853406
Extrapolated:  -250.762219

Dipole-layer corrected work functions: 3.403846, 2.647976 eV

Showing only first 2 kpts
 Kpt  Band  Eigenvalues  Occupancy
  0    23     -3.41193    1.99911
  0    24     -3.29357    1.99058
  0    25     -3.10830    1.67717
  0    26     -2.91485    0.19570

  1    23     -3.43769    1.99947
  1    24     -3.15151    1.84995
  1    25     -3.10920    1.68204
  1    26     -3.02055    0.94647


Fermi level: -3.02591

No gap
Writing to output.gpw (mode='')


Forces in eV/Ang:
  0 Li    0.01636    0.01636   -0.31801
  1 Li   -0.02330    0.01156   -0.32965
  2 Li    0.00640   -0.00353   -0.34603
  3 Li    0.01156   -0.02330   -0.32965
  4 Li    0.00405    0.00405   -0.29478
  5 Li   -0.00059    0.00296   -0.27597
  6 Li   -0.00353    0.00640   -0.34603
  7 Li    0.00296   -0.00059   -0.27597
  8 Li   -0.00016   -0.00016   -0.27068
  9 Li   -0.05829   -0.05829    0.29568
 10 Li    0.03672   -0.22885    0.37939
 11 Li    0.01833    0.00815    0.25078
 12 Li   -0.22885    0.03672    0.37939
 13 Li    0.17881    0.17881    0.32487
 14 Li   -0.01965   -0.09673    0.47541
 15 Li    0.00815    0.01833    0.25078
 16 Li   -0.09673   -0.01965    0.47541
 17 Li   -0.02753   -0.02753    0.12068
 18 Li   -0.01906   -0.01906   -0.01961
 19 Li   -0.01968    0.07087   -0.00368
 20 Li   -0.04290    0.01374    0.01395
 21 Li    0.07087   -0.01968   -0.00368
 22 Li    0.00022    0.00022    0.04669
 23 Li    0.04145    0.00478   -0.05272
 24 Li    0.01374   -0.04290    0.01395
 25 Li    0.00478    0.04145   -0.05272
 26 Li   -0.00439   -0.00439    0.04943
 27 Li    0.02030    0.02030   -0.03545
 28 Li    0.01992    0.03306   -0.00764
 29 Li    0.04998    0.00163   -0.01325
 30 Li    0.03306    0.01992   -0.00764
 31 Li    0.02581    0.02581   -0.04936
 32 Li   -0.01472   -0.01214    0.00436
 33 Li    0.00163    0.04998   -0.01325
 34 Li   -0.01214   -0.01472    0.00436
 35 Li    0.01817    0.01817   -0.03254
 36 N     0.02005    0.02005    0.00599
 37 N    -0.02436   -0.02436    0.04444
 38 N     0.00420    0.00420   -0.06424

System changes: positions 

Initializing position-dependent things.

Density initialized from wave functions
       .-----------------------.  
      /|                       |  
     / |                       |  
    /  |                       |  
   /   |                       |  
  /    |                       |  
 *     |                       |  
 |     |                       |  
 |     |                       |  
 |     |                       |  
 |     |                     Li|  
 |     |                       |  
 |     |               Li    N |  
 |     |   Li    Li       Li   |  
 |     |Li     Li   Li         |  
 |     |           LiN    Li   |  
 |     |         Li            |  
 | Li  Li  Li          Li      |  
 |     |                       |  
 |   LLi     LLi     LLi       |  
 |     |  Li      Li      Li   |  
 | Li  |   Li      Li          |  
 |     |Li      Li      Li     |  
 Li    | Li      Li            |  
 |    Li      Li      Li       |  
 |     |                       |  
 |     |                       |  
 |     |                       |  
 |     |                       |  
 |     |                       |  
 |     |                       |  
 |     .-----------------------.  
 |    /                       /   
 |   /                       /    
 |  /                       /     
 | /                       /      
 |/                       /       
 *-----------------------*        

Positions:
   0 Li     1.617037    1.617037   10.000000    ( 0.0000,  0.0000,  0.0000)
   1 Li     4.851111    1.617037   10.000000    ( 0.0000,  0.0000,  0.0000)
   2 Li     8.085185    1.617037   10.000000    ( 0.0000,  0.0000,  0.0000)
   3 Li     1.617037    4.851111   10.000000    ( 0.0000,  0.0000,  0.0000)
   4 Li     4.851111    4.851111   10.000000    ( 0.0000,  0.0000,  0.0000)
   5 Li     8.085185    4.851111   10.000000    ( 0.0000,  0.0000,  0.0000)
   6 Li     1.617037    8.085185   10.000000    ( 0.0000,  0.0000,  0.0000)
   7 Li     4.851111    8.085185   10.000000    ( 0.0000,  0.0000,  0.0000)
   8 Li     8.085185    8.085185   10.000000    ( 0.0000,  0.0000,  0.0000)
   9 Li     0.000000    0.000000   11.617037    ( 0.0000,  0.0000,  0.0000)
  10 Li     3.234074    0.000000   11.617037    ( 0.0000,  0.0000,  0.0000)
  11 Li     6.468148    0.000000   11.617037    ( 0.0000,  0.0000,  0.0000)
  12 Li     0.000000    3.234074   11.617037    ( 0.0000,  0.0000,  0.0000)
  13 Li     3.234074    3.234074   11.617037    ( 0.0000,  0.0000,  0.0000)
  14 Li     6.468148    3.234074   11.617037    ( 0.0000,  0.0000,  0.0000)
  15 Li     0.000000    6.468148   11.617037    ( 0.0000,  0.0000,  0.0000)
  16 Li     3.234074    6.468148   11.617037    ( 0.0000,  0.0000,  0.0000)
  17 Li     6.468148    6.468148   11.617037    ( 0.0000,  0.0000,  0.0000)
  18 Li     1.714739    1.714739   13.200156    ( 0.0000,  0.0000,  0.0000)
  19 Li     4.912517    1.100805   13.741164    ( 0.0000,  0.0000,  0.0000)
  20 Li     8.153517    0.791784   14.249203    ( 0.0000,  0.0000,  0.0000)
  21 Li     1.100805    4.912517   13.741164    ( 0.0000,  0.0000,  0.0000)
  22 Li     5.044690    5.044690   13.998045    ( 0.0000,  0.0000,  0.0000)
  23 Li     7.707408    5.294592   13.642306    ( 0.0000,  0.0000,  0.0000)
  24 Li     0.791784    8.153517   14.249203    ( 0.0000,  0.0000,  0.0000)
  25 Li     5.294592    7.707408   13.642306    ( 0.0000,  0.0000,  0.0000)
  26 Li    10.363247   10.363247   15.508164    ( 0.0000,  0.0000,  0.0000)
  27 Li    -0.709166   -0.709166   17.160188    ( 0.0000,  0.0000,  0.0000)
  28 Li     4.852161    2.791272   16.698636    ( 0.0000,  0.0000,  0.0000)
  29 Li     6.849598   -1.193524   15.554235    ( 0.0000,  0.0000,  0.0000)
  30 Li     2.791272    4.852161   16.698636    ( 0.0000,  0.0000,  0.0000)
  31 Li     3.359876    3.359876   14.761007    ( 0.0000,  0.0000,  0.0000)
  32 Li     6.423520    4.859974   15.908419    ( 0.0000,  0.0000,  0.0000)
  33 Li    -1.193524    6.849598   15.554235    ( 0.0000,  0.0000,  0.0000)
  34 Li     4.859974    6.423520   15.908419    ( 0.0000,  0.0000,  0.0000)
  35 Li     7.968037    7.968037   13.588450    ( 0.0000,  0.0000,  0.0000)
  36 N      8.918442    8.918442   15.297700    ( 0.0000,  0.0000,  0.0000)
  37 N      4.462994    4.462994   15.905685    ( 0.0000,  0.0000,  0.0000)
  38 N      6.577421    6.577421   14.736865    ( 0.0000,  0.0000,  0.0000)

Unit cell:
           periodic     x           y           z      points  spacing
  1. axis:    yes    9.702222    0.000000    0.000000    60     0.1617
  2. axis:    yes    0.000000    9.702222    0.000000    60     0.1617
  3. axis:    no     0.000000    0.000000   24.851111   156     0.1593

  Lengths:   9.702222   9.702222  24.851111
  Angles:   90.000000  90.000000  90.000000

Effective grid spacing dv^(1/3) = 0.1609

     iter     time        total  log10-change:
                         energy  eigst   dens
iter:   1 16:13:37  -250.766434  -1.20
iter:   2 16:14:41  -250.766959  -1.95  -2.27
iter:   3 16:15:44  -250.765143c -2.40  -2.35
iter:   4 16:16:43  -250.764999c -2.35  -2.55
Writing to output.gpw (mode='')

iter:   5 16:17:33  -250.765134c -3.02  -2.66
iter:   6 16:18:31  -250.765180c -3.06  -2.80
iter:   7 16:19:17  -250.765135c -2.99  -2.94
iter:   8 16:20:34  -250.765028c -3.43  -3.10
iter:   9 16:21:36  -250.765057c -3.82  -3.31
Writing to output.gpw (mode='')

iter:  10 16:22:55  -250.765069c -4.01  -3.33
iter:  11 16:23:41  -250.765086c -4.25  -3.35
iter:  12 16:24:24  -250.765100c -4.41  -3.37
iter:  13 16:25:10  -250.765126c -4.47  -3.38
iter:  14 16:25:57  -250.765111c -4.52  -3.44
Writing to output.gpw (mode='')

iter:  15 16:26:49  -250.765101c -4.77  -3.63
iter:  16 16:27:58  -250.765105c -4.78  -3.77
iter:  17 16:30:09  -250.765129c -4.96  -3.94
iter:  18 16:31:12  -250.765131c -5.12  -4.11c
iter:  19 16:32:41  -250.765127c -5.32  -4.16c
Writing to output.gpw (mode='')

iter:  20 16:33:37  -250.765130c -5.60  -4.22c
iter:  21 16:34:50  -250.765127c -5.73  -4.24c
iter:  22 16:35:45  -250.765125c -5.82  -4.40c
iter:  23 16:36:49  -250.765125c -5.80  -4.54c
iter:  24 16:37:44  -250.765125c -6.19  -4.60c
Writing to output.gpw (mode='')

iter:  25 16:39:26  -250.765126c -6.16  -4.64c
iter:  26 16:40:45  -250.765126c -6.31  -4.66c
iter:  27 16:42:32  -250.765125c -6.29  -4.80c
iter:  28 16:43:53  -250.765127c -6.43  -4.74c
iter:  29 16:45:22  -250.765126c -6.76  -4.98c
Writing to output.gpw (mode='')

iter:  30 16:46:47  -250.765127c -6.76  -4.99c
iter:  31 16:48:18  -250.765127c -6.91  -5.23c
iter:  32 16:49:58  -250.765127c -6.97  -5.23c
iter:  33 16:51:09  -250.765127c -7.10  -5.21c
iter:  34 16:52:30  -250.765127c -6.96  -5.18c
Writing to output.gpw (mode='')

iter:  35 16:54:08  -250.765127c -7.25  -5.12c
iter:  36 16:55:47  -250.765127c -7.39  -5.12c
iter:  37 16:57:04  -250.765127c -7.37  -5.07c
iter:  38 16:58:28  -250.765127c -7.49c -5.10c

Converged after 38 iterations.

Dipole moment: (-1.258664, -1.258664, 0.392114) |e|*Ang

Energy contributions relative to reference atoms: (reference = -11745.526041)

Kinetic:        +97.129821
Potential:      -82.817011
External:        +0.000000
XC:            -265.579015
Entropy (-ST):   -0.182247
Local:           +0.592201
--------------------------
Free energy:   -250.856251
Extrapolated:  -250.765127

Dipole-layer corrected work functions: 3.402841, 2.649064 eV

Showing only first 2 kpts
 Kpt  Band  Eigenvalues  Occupancy
  0    23     -3.41166    1.99911
  0    24     -3.29313    1.99049
  0    25     -3.10918    1.68169
  0    26     -2.91211    0.18611

  1    23     -3.43886    1.99948
  1    24     -3.14814    1.84021
  1    25     -3.10989    1.68547
  1    26     -3.01930    0.93354


Fermi level: -3.02595

No gap
Writing to output.gpw (mode='')


Forces in eV/Ang:
  0 Li    0.01679    0.01679   -0.31779
  1 Li   -0.02320    0.01128   -0.32946
  2 Li    0.00599   -0.00375   -0.34607
  3 Li    0.01128   -0.02320   -0.32946
  4 Li    0.00429    0.00429   -0.29279
  5 Li   -0.00065    0.00319   -0.27579
  6 Li   -0.00375    0.00599   -0.34607
  7 Li    0.00319   -0.00065   -0.27579
  8 Li   -0.00085   -0.00085   -0.27055
  9 Li   -0.06106   -0.06106    0.30001
 10 Li    0.04204   -0.23175    0.37521
 11 Li    0.01877    0.01056    0.25140
 12 Li   -0.23175    0.04204    0.37521
 13 Li    0.18146    0.18146    0.32501
 14 Li   -0.01960   -0.09641    0.47414
 15 Li    0.01056    0.01877    0.25140
 16 Li   -0.09641   -0.01960    0.47414
 17 Li   -0.02403   -0.02403    0.11484
 18 Li   -0.01728   -0.01728    0.00146
 19 Li   -0.02108    0.06828   -0.00121
 20 Li   -0.01274    0.03017    0.01478
 21 Li    0.06828   -0.02108   -0.00121
 22 Li   -0.00654   -0.00654    0.05199
 23 Li    0.05042    0.00931   -0.04339
 24 Li    0.03017   -0.01274    0.01478
 25 Li    0.00931    0.05042   -0.04339
 26 Li   -0.04100   -0.04100    0.00718
 27 Li    0.01678    0.01678   -0.02353
 28 Li    0.00597    0.03658   -0.02102
 29 Li    0.04571    0.01247   -0.01340
 30 Li    0.03658    0.00597   -0.02102
 31 Li    0.00650    0.00650   -0.05622
 32 Li   -0.01313   -0.00989    0.00369
 33 Li    0.01247    0.04571   -0.01340
 34 Li   -0.00989   -0.01313    0.00369
 35 Li   -0.00215   -0.00215   -0.03996
 36 N     0.00740    0.00740    0.00352
 37 N    -0.02307   -0.02307    0.07228
 38 N     0.03700    0.03700   -0.06966

System changes: positions 

Initializing position-dependent things.

Density initialized from wave functions
       .-----------------------.  
      /|                       |  
     / |                       |  
    /  |                       |  
   /   |                       |  
  /    |                       |  
 *     |                       |  
 |     |                       |  
 |     |                       |  
 |     |                       |  
 |     |                     Li|  
 |     |                       |  
 |     |               Li    N |  
 |     |   Li    Li       Li   |  
 |     |Li     Li   Li         |  
 |     |           LiN    Li   |  
 |     |         Li            |  
 | Li  Li  Li          Li      |  
 |     |                       |  
 |   LLi     LLi     LLi       |  
 |     |  Li      Li      Li   |  
 | Li  |   Li      Li          |  
 |     |Li      Li      Li     |  
 Li    | Li      Li            |  
 |    Li      Li      Li       |  
 |     |                       |  
 |     |                       |  
 |     |                       |  
 |     |                       |  
 |     |                       |  
 |     |                       |  
 |     .-----------------------.  
 |    /                       /   
 |   /                       /    
 |  /                       /     
 | /                       /      
 |/                       /       
 *-----------------------*        

Positions:
   0 Li     1.617037    1.617037   10.000000    ( 0.0000,  0.0000,  0.0000)
   1 Li     4.851111    1.617037   10.000000    ( 0.0000,  0.0000,  0.0000)
   2 Li     8.085185    1.617037   10.000000    ( 0.0000,  0.0000,  0.0000)
   3 Li     1.617037    4.851111   10.000000    ( 0.0000,  0.0000,  0.0000)
   4 Li     4.851111    4.851111   10.000000    ( 0.0000,  0.0000,  0.0000)
   5 Li     8.085185    4.851111   10.000000    ( 0.0000,  0.0000,  0.0000)
   6 Li     1.617037    8.085185   10.000000    ( 0.0000,  0.0000,  0.0000)
   7 Li     4.851111    8.085185   10.000000    ( 0.0000,  0.0000,  0.0000)
   8 Li     8.085185    8.085185   10.000000    ( 0.0000,  0.0000,  0.0000)
   9 Li     0.000000    0.000000   11.617037    ( 0.0000,  0.0000,  0.0000)
  10 Li     3.234074    0.000000   11.617037    ( 0.0000,  0.0000,  0.0000)
  11 Li     6.468148    0.000000   11.617037    ( 0.0000,  0.0000,  0.0000)
  12 Li     0.000000    3.234074   11.617037    ( 0.0000,  0.0000,  0.0000)
  13 Li     3.234074    3.234074   11.617037    ( 0.0000,  0.0000,  0.0000)
  14 Li     6.468148    3.234074   11.617037    ( 0.0000,  0.0000,  0.0000)
  15 Li     0.000000    6.468148   11.617037    ( 0.0000,  0.0000,  0.0000)
  16 Li     3.234074    6.468148   11.617037    ( 0.0000,  0.0000,  0.0000)
  17 Li     6.468148    6.468148   11.617037    ( 0.0000,  0.0000,  0.0000)
  18 Li     1.713234    1.713234   13.198364    ( 0.0000,  0.0000,  0.0000)
  19 Li     4.911330    1.103035   13.741939    ( 0.0000,  0.0000,  0.0000)
  20 Li     8.152068    0.790292   14.252458    ( 0.0000,  0.0000,  0.0000)
  21 Li     1.103035    4.911330   13.741939    ( 0.0000,  0.0000,  0.0000)
  22 Li     5.044066    5.044066   13.999140    ( 0.0000,  0.0000,  0.0000)
  23 Li     7.707468    5.295081   13.639917    ( 0.0000,  0.0000,  0.0000)
  24 Li     0.790292    8.152068   14.252458    ( 0.0000,  0.0000,  0.0000)
  25 Li     5.295081    7.707468   13.639917    ( 0.0000,  0.0000,  0.0000)
  26 Li    10.364011   10.364011   15.513677    ( 0.0000,  0.0000,  0.0000)
  27 Li    -0.707441   -0.707441   17.155707    ( 0.0000,  0.0000,  0.0000)
  28 Li     4.852851    2.796055   16.696276    ( 0.0000,  0.0000,  0.0000)
  29 Li     6.853200   -1.194073   15.552513    ( 0.0000,  0.0000,  0.0000)
  30 Li     2.796055    4.852851   16.696276    ( 0.0000,  0.0000,  0.0000)
  31 Li     3.360030    3.360030   14.757536    ( 0.0000,  0.0000,  0.0000)
  32 Li     6.424145    4.860998   15.906723    ( 0.0000,  0.0000,  0.0000)
  33 Li    -1.194073    6.853200   15.552513    ( 0.0000,  0.0000,  0.0000)
  34 Li     4.860998    6.424145   15.906723    ( 0.0000,  0.0000,  0.0000)
  35 Li     7.967710    7.967710   13.581894    ( 0.0000,  0.0000,  0.0000)
  36 N      8.919964    8.919964   15.300250    ( 0.0000,  0.0000,  0.0000)
  37 N      4.463859    4.463859   15.902928    ( 0.0000,  0.0000,  0.0000)
  38 N      6.578325    6.578325   14.733109    ( 0.0000,  0.0000,  0.0000)

Unit cell:
           periodic     x           y           z      points  spacing
  1. axis:    yes    9.702222    0.000000    0.000000    60     0.1617
  2. axis:    yes    0.000000    9.702222    0.000000    60     0.1617
  3. axis:    no     0.000000    0.000000   24.851111   156     0.1593

  Lengths:   9.702222   9.702222  24.851111
  Angles:   90.000000  90.000000  90.000000

Effective grid spacing dv^(1/3) = 0.1609

     iter     time        total  log10-change:
                         energy  eigst   dens
iter:   1 17:00:32  -250.767753  -2.15
iter:   2 17:01:52  -250.767199  -2.89  -2.44
iter:   3 17:02:58  -250.767031c -3.41  -2.75
iter:   4 17:04:04  -250.766889c -3.64  -2.91
Writing to output.gpw (mode='')

iter:   5 17:05:43  -250.766877c -3.37  -3.14
iter:   6 17:07:05  -250.766884c -4.18  -3.26
iter:   7 17:08:30  -250.766904c -3.83  -3.43
iter:   8 17:09:42  -250.766892c -4.53  -3.47
iter:   9 17:11:12  -250.766877c -4.53  -3.55
Writing to output.gpw (mode='')

iter:  10 17:12:48  -250.766882c -5.00  -3.83
iter:  11 17:14:09  -250.766888c -5.41  -3.85
iter:  12 17:15:33  -250.766893c -5.33  -3.86
iter:  13 17:17:11  -250.766898c -5.41  -4.07c
iter:  14 17:18:31  -250.766895c -5.73  -4.07c
Writing to output.gpw (mode='')

iter:  15 17:20:02  -250.766895c -5.98  -4.11c
iter:  16 17:22:00  -250.766894c -5.97  -4.19c
iter:  17 17:23:23  -250.766891c -6.07  -4.41c
iter:  18 17:24:34  -250.766890c -6.21  -4.59c
iter:  19 17:25:55  -250.766892c -6.47  -4.64c
Writing to output.gpw (mode='')

iter:  20 17:27:15  -250.766892c -6.57  -4.71c
iter:  21 17:28:39  -250.766893c -6.95  -4.87c
iter:  22 17:29:58  -250.766893c -6.88  -4.92c
iter:  23 17:31:24  -250.766893c -7.15  -4.94c
iter:  24 17:32:51  -250.766893c -7.25  -5.00c
Writing to output.gpw (mode='')

iter:  25 17:34:43  -250.766893c -7.21  -5.11c
iter:  26 17:36:07  -250.766893c -7.39  -5.29c
iter:  27 17:37:34  -250.766893c -7.51c -5.38c

Converged after 27 iterations.

Dipole moment: (-1.240938, -1.240938, 0.392083) |e|*Ang

Energy contributions relative to reference atoms: (reference = -11745.526041)

Kinetic:        +97.394305
Potential:      -83.007002
External:        +0.000000
XC:            -265.655458
Entropy (-ST):   -0.182082
Local:           +0.592303
--------------------------
Free energy:   -250.857933
Extrapolated:  -250.766893

Dipole-layer corrected work functions: 3.402466, 2.648747 eV

Showing only first 2 kpts
 Kpt  Band  Eigenvalues  Occupancy
  0    23     -3.41167    1.99911
  0    24     -3.29279    1.99049
  0    25     -3.10937    1.68453
  0    26     -2.91168    0.18584

  1    23     -3.43855    1.99948
  1    24     -3.14770    1.83993
  1    25     -3.10950    1.68523
  1    26     -3.01893    0.93332


Fermi level: -3.02561

No gap
Writing to output.gpw (mode='')


Forces in eV/Ang:
  0 Li    0.01681    0.01681   -0.31802
  1 Li   -0.02337    0.01145   -0.32960
  2 Li    0.00617   -0.00384   -0.34598
  3 Li    0.01145   -0.02337   -0.32960
  4 Li    0.00414    0.00414   -0.29263
  5 Li   -0.00066    0.00339   -0.27549
  6 Li   -0.00384    0.00617   -0.34598
  7 Li    0.00339   -0.00066   -0.27549
  8 Li   -0.00107   -0.00107   -0.26979
  9 Li   -0.06213   -0.06213    0.29885
 10 Li    0.04321   -0.23180    0.37449
 11 Li    0.01781    0.01267    0.25157
 12 Li   -0.23180    0.04321    0.37449
 13 Li    0.18072    0.18072    0.32477
 14 Li   -0.01998   -0.09658    0.47397
 15 Li    0.01267    0.01781    0.25157
 16 Li   -0.09658   -0.01998    0.47397
 17 Li   -0.02554   -0.02554    0.11271
 18 Li   -0.01698   -0.01698    0.00663
 19 Li   -0.01840    0.06435   -0.00356
 20 Li   -0.00774    0.03525    0.01201
 21 Li    0.06435   -0.01840   -0.00356
 22 Li   -0.00214   -0.00214    0.03903
 23 Li    0.05359    0.00778   -0.04062
 24 Li    0.03525   -0.00774    0.01201
 25 Li    0.00778    0.05359   -0.04062
 26 Li   -0.03569   -0.03569   -0.00680
 27 Li    0.01448    0.01448    0.02522
 28 Li    0.00931    0.01816   -0.01343
 29 Li    0.03306    0.01574   -0.01614
 30 Li    0.01816    0.00931   -0.01343
 31 Li    0.00648    0.00648   -0.05137
 32 Li   -0.00644   -0.00873    0.00093
 33 Li    0.01574    0.03306   -0.01614
 34 Li   -0.00873   -0.00644    0.00093
 35 Li    0.00064    0.00064   -0.02938
 36 N    -0.01781   -0.01781   -0.04633
 37 N    -0.02483   -0.02483    0.07476
 38 N     0.02603    0.02603   -0.05090

System changes: positions 

Initializing position-dependent things.

Density initialized from wave functions
       .-----------------------.  
      /|                       |  
     / |                       |  
    /  |                       |  
   /   |                       |  
  /    |                       |  
 *     |                       |  
 |     |                       |  
 |     |                       |  
 |     |                       |  
 |     |                     Li|  
 |     |                       |  
 |     |               Li    N |  
 |     |   Li    Li       Li   |  
 |     |Li     Li   Li         |  
 |     |           LiN    Li   |  
 |     |         Li            |  
 | Li  Li  Li          Li      |  
 |     |                       |  
 |   LLi     LLi     LLi       |  
 |     |  Li      Li      Li   |  
 | Li  |   Li      Li          |  
 |     |Li      Li      Li     |  
 Li    | Li      Li            |  
 |    Li      Li      Li       |  
 |     |                       |  
 |     |                       |  
 |     |                       |  
 |     |                       |  
 |     |                       |  
 |     |                       |  
 |     .-----------------------.  
 |    /                       /   
 |   /                       /    
 |  /                       /     
 | /                       /      
 |/                       /       
 *-----------------------*        

Positions:
   0 Li     1.617037    1.617037   10.000000    ( 0.0000,  0.0000,  0.0000)
   1 Li     4.851111    1.617037   10.000000    ( 0.0000,  0.0000,  0.0000)
   2 Li     8.085185    1.617037   10.000000    ( 0.0000,  0.0000,  0.0000)
   3 Li     1.617037    4.851111   10.000000    ( 0.0000,  0.0000,  0.0000)
   4 Li     4.851111    4.851111   10.000000    ( 0.0000,  0.0000,  0.0000)
   5 Li     8.085185    4.851111   10.000000    ( 0.0000,  0.0000,  0.0000)
   6 Li     1.617037    8.085185   10.000000    ( 0.0000,  0.0000,  0.0000)
   7 Li     4.851111    8.085185   10.000000    ( 0.0000,  0.0000,  0.0000)
   8 Li     8.085185    8.085185   10.000000    ( 0.0000,  0.0000,  0.0000)
   9 Li     0.000000    0.000000   11.617037    ( 0.0000,  0.0000,  0.0000)
  10 Li     3.234074    0.000000   11.617037    ( 0.0000,  0.0000,  0.0000)
  11 Li     6.468148    0.000000   11.617037    ( 0.0000,  0.0000,  0.0000)
  12 Li     0.000000    3.234074   11.617037    ( 0.0000,  0.0000,  0.0000)
  13 Li     3.234074    3.234074   11.617037    ( 0.0000,  0.0000,  0.0000)
  14 Li     6.468148    3.234074   11.617037    ( 0.0000,  0.0000,  0.0000)
  15 Li     0.000000    6.468148   11.617037    ( 0.0000,  0.0000,  0.0000)
  16 Li     3.234074    6.468148   11.617037    ( 0.0000,  0.0000,  0.0000)
  17 Li     6.468148    6.468148   11.617037    ( 0.0000,  0.0000,  0.0000)
  18 Li     1.711199    1.711199   13.193709    ( 0.0000,  0.0000,  0.0000)
  19 Li     4.908938    1.115414   13.745390    ( 0.0000,  0.0000,  0.0000)
  20 Li     8.140890    0.784331   14.265600    ( 0.0000,  0.0000,  0.0000)
  21 Li     1.115414    4.908938   13.745390    ( 0.0000,  0.0000,  0.0000)
  22 Li     5.039815    5.039815   14.006888    ( 0.0000,  0.0000,  0.0000)
  23 Li     7.710328    5.293407   13.633805    ( 0.0000,  0.0000,  0.0000)
  24 Li     0.784331    8.140890   14.265600    ( 0.0000,  0.0000,  0.0000)
  25 Li     5.293407    7.710328   13.633805    ( 0.0000,  0.0000,  0.0000)
  26 Li    10.360012   10.360012   15.516102    ( 0.0000,  0.0000,  0.0000)
  27 Li    -0.707859   -0.707859   17.161379    ( 0.0000,  0.0000,  0.0000)
  28 Li     4.850847    2.800215   16.692065    ( 0.0000,  0.0000,  0.0000)
  29 Li     6.857830   -1.199343   15.552693    ( 0.0000,  0.0000,  0.0000)
  30 Li     2.800215    4.850847   16.692065    ( 0.0000,  0.0000,  0.0000)
  31 Li     3.363656    3.363656   14.749403    ( 0.0000,  0.0000,  0.0000)
  32 Li     6.422574    4.861091   15.911662    ( 0.0000,  0.0000,  0.0000)
  33 Li    -1.199343    6.857830   15.552693    ( 0.0000,  0.0000,  0.0000)
  34 Li     4.861091    6.422574   15.911662    ( 0.0000,  0.0000,  0.0000)
  35 Li     7.967408    7.967408   13.576618    ( 0.0000,  0.0000,  0.0000)
  36 N      8.916439    8.916439   15.307080    ( 0.0000,  0.0000,  0.0000)
  37 N      4.461134    4.461134   15.902495    ( 0.0000,  0.0000,  0.0000)
  38 N      6.578124    6.578124   14.726881    ( 0.0000,  0.0000,  0.0000)

Unit cell:
           periodic     x           y           z      points  spacing
  1. axis:    yes    9.702222    0.000000    0.000000    60     0.1617
  2. axis:    yes    0.000000    9.702222    0.000000    60     0.1617
  3. axis:    no     0.000000    0.000000   24.851111   156     0.1593

  Lengths:   9.702222   9.702222  24.851111
  Angles:   90.000000  90.000000  90.000000

Effective grid spacing dv^(1/3) = 0.1609

     iter     time        total  log10-change:
                         energy  eigst   dens
iter:   1 17:39:26  -250.771309  -1.49
iter:   2 17:40:50  -250.771024  -2.25  -2.34
iter:   3 17:42:10  -250.770595c -2.79  -2.43
iter:   4 17:43:27  -250.769432c -2.48  -2.52
Writing to output.gpw (mode='')

iter:   5 17:45:20  -250.769523c -3.50  -2.76
iter:   6 17:46:48  -250.769476c -3.42  -2.82
iter:   7 17:48:29  -250.769440c -2.88  -2.92
iter:   8 17:50:03  -250.769419c -3.69  -3.13
iter:   9 17:52:12  -250.769395c -4.01  -3.17
Writing to output.gpw (mode='')

iter:  10 17:53:32  -250.769362c -3.88  -3.24
iter:  11 17:54:52  -250.769371c -4.46  -3.43
iter:  12 17:55:59  -250.769379c -4.65  -3.50
iter:  13 17:57:11  -250.769383c -4.68  -3.52
iter:  14 17:58:47  -250.769387c -4.79  -3.67
Writing to output.gpw (mode='')

iter:  15 18:00:13  -250.769383c -5.10  -3.80
iter:  16 18:01:38  -250.769383c -5.32  -3.85
iter:  17 18:03:04  -250.769394c -5.38  -3.87
iter:  18 18:04:33  -250.769392c -5.50  -4.13c
iter:  19 18:05:58  -250.769390c -5.62  -4.25c
Writing to output.gpw (mode='')

iter:  20 18:07:42  -250.769389c -5.83  -4.27c
iter:  21 18:10:14  -250.769389c -6.06  -4.27c
iter:  22 18:12:02  -250.769387c -6.06  -4.29c
iter:  23 18:13:53  -250.769385c -6.13  -4.49c
iter:  24 18:15:44  -250.769386c -6.38  -4.63c
Writing to output.gpw (mode='')

iter:  25 18:18:36  -250.769386c -6.53  -4.66c
iter:  26 18:20:40  -250.769388c -6.49  -4.67c
iter:  27 18:22:15  -250.769387c -6.63  -4.74c
iter:  28 18:23:39  -250.769388c -6.65  -4.83c
iter:  29 18:25:50  -250.769388c -6.91  -4.86c
Writing to output.gpw (mode='')

iter:  30 18:28:15  -250.769389c -7.00  -4.99c
iter:  31 18:30:23  -250.769388c -7.13  -5.14c
iter:  32 18:32:00  -250.769387c -7.08  -5.16c
iter:  33 18:33:15  -250.769388c -7.17  -5.20c
iter:  34 18:35:06  -250.769388c -7.50c -5.24c

Converged after 34 iterations.

Dipole moment: (-1.312354, -1.312354, 0.392234) |e|*Ang

Energy contributions relative to reference atoms: (reference = -11745.526041)

Kinetic:        +97.682093
Potential:      -83.215141
External:        +0.000000
XC:            -265.737863
Entropy (-ST):   -0.182125
Local:           +0.592585
--------------------------
Free energy:   -250.860450
Extrapolated:  -250.769388

Dipole-layer corrected work functions: 3.401424, 2.647416 eV

Showing only first 2 kpts
 Kpt  Band  Eigenvalues  Occupancy
  0    23     -3.41194    1.99914
  0    24     -3.29154    1.99048
  0    25     -3.10867    1.68713
  0    26     -2.91131    0.18861

  1    23     -3.43830    1.99949
  1    24     -3.14658    1.84014
  1    25     -3.10812    1.68422
  1    26     -3.01873    0.94314


Fermi level: -3.02442

No gap
Writing to output.gpw (mode='')


Forces in eV/Ang:
  0 Li    0.01692    0.01692   -0.31937
  1 Li   -0.02366    0.01159   -0.32994
  2 Li    0.00634   -0.00395   -0.34656
  3 Li    0.01159   -0.02366   -0.32994
  4 Li    0.00376    0.00376   -0.29312
  5 Li   -0.00049    0.00366   -0.27530
  6 Li   -0.00395    0.00634   -0.34656
  7 Li    0.00366   -0.00049   -0.27530
  8 Li   -0.00158   -0.00158   -0.26877
  9 Li   -0.06465   -0.06465    0.30235
 10 Li    0.04716   -0.23155    0.37477
 11 Li    0.01538    0.01708    0.25473
 12 Li   -0.23155    0.04716    0.37477
 13 Li    0.18075    0.18075    0.32379
 14 Li   -0.02165   -0.09685    0.47330
 15 Li    0.01708    0.01538    0.25473
 16 Li   -0.09685   -0.02165    0.47330
 17 Li   -0.02798   -0.02798    0.11443
 18 Li   -0.01561   -0.01561    0.01969
 19 Li   -0.01122    0.04953   -0.01375
 20 Li    0.00141    0.04781    0.00300
 21 Li    0.04953   -0.01122   -0.01375
 22 Li    0.02568    0.02568    0.00905
 23 Li    0.04562    0.00894   -0.02101
 24 Li    0.04781    0.00141    0.00300
 25 Li    0.00894    0.04562   -0.02101
 26 Li   -0.03115   -0.03115   -0.01764
 27 Li    0.01159    0.01159    0.03170
 28 Li    0.01552   -0.02332    0.00704
 29 Li    0.00062    0.02207   -0.01588
 30 Li   -0.02332    0.01552    0.00704
 31 Li   -0.01363   -0.01363   -0.04573
 32 Li    0.00777   -0.00777   -0.02379
 33 Li    0.02207    0.00062   -0.01588
 34 Li   -0.00777    0.00777   -0.02379
 35 Li   -0.00205   -0.00205   -0.02480
[...]
iter:   4 04:04:55  -250.786838c -3.17  -2.77
Writing to output.gpw (mode='')

iter:   5 04:06:27  -250.786783c -3.90  -3.07
iter:   6 04:09:01  -250.786721c -4.04  -3.15
iter:   7 04:10:19  -250.786736c -3.68  -3.27
iter:   8 04:11:39  -250.786759c -4.35  -3.49
iter:   9 04:13:13  -250.786763c -4.60  -3.66
Writing to output.gpw (mode='')

iter:  10 04:15:21  -250.786749c -4.81  -3.76
iter:  11 04:17:07  -250.786744c -5.09  -3.79
iter:  12 04:19:04  -250.786752c -5.10  -3.91
iter:  13 04:20:01  -250.786746c -5.50  -4.00c
iter:  14 04:22:37  -250.786743c -5.56  -4.02c
Writing to output.gpw (mode='')

iter:  15 04:24:38  -250.786752c -5.51  -3.99
iter:  16 04:25:45  -250.786752c -5.74  -4.08c
iter:  17 04:26:22  -250.786746c -6.19  -4.14c
iter:  18 04:27:40  -250.786745c -6.11  -4.39c
iter:  19 04:28:29  -250.786746c -6.43  -4.57c
Writing to output.gpw (mode='')

iter:  20 04:29:09  -250.786747c -6.64  -4.63c
iter:  21 04:30:12  -250.786748c -6.54  -4.67c
iter:  22 04:30:56  -250.786748c -6.74  -4.74c
iter:  23 04:32:06  -250.786747c -6.87  -4.83c
iter:  24 04:33:09  -250.786748c -7.04  -4.97c
Writing to output.gpw (mode='')

iter:  25 04:34:21  -250.786748c -7.04  -5.01c
iter:  26 04:35:33  -250.786747c -7.28  -5.14c
iter:  27 04:36:32  -250.786747c -7.43c -5.32c

Converged after 27 iterations.

Dipole moment: (-0.766730, -0.766730, 0.385844) |e|*Ang

Energy contributions relative to reference atoms: (reference = -11745.526041)

Kinetic:        +97.411900
Potential:      -82.993889
External:        +0.000000
XC:            -265.704925
Entropy (-ST):   -0.182835
Local:           +0.591585
--------------------------
Free energy:   -250.878165
Extrapolated:  -250.786747

Dipole-layer corrected work functions: 3.401143, 2.659418 eV

Showing only first 2 kpts
 Kpt  Band  Eigenvalues  Occupancy
  0    23     -3.41726    1.99913
  0    24     -3.30661    1.99207
  0    25     -3.10801    1.65114
  0    26     -2.91848    0.19313

  1    23     -3.44179    1.99947
  1    24     -3.15884    1.85798
  1    25     -3.11934    1.71169
  1    26     -3.02054    0.90289


Fermi level: -3.03028

No gap
Writing to output.gpw (mode='')


Forces in eV/Ang:
  0 Li    0.01644    0.01644   -0.31460
  1 Li   -0.02281    0.01098   -0.33048
  2 Li    0.00757   -0.00326   -0.34475
  3 Li    0.01098   -0.02281   -0.33048
  4 Li    0.00201    0.00201   -0.28915
  5 Li    0.00082    0.00041   -0.27408
  6 Li   -0.00326    0.00757   -0.34475
  7 Li    0.00041    0.00082   -0.27408
  8 Li   -0.00225   -0.00225   -0.26347
  9 Li   -0.05849   -0.05849    0.29653
 10 Li    0.04287   -0.22198    0.37783
 11 Li    0.01639    0.05739    0.23915
 12 Li   -0.22198    0.04287    0.37783
 13 Li    0.15999    0.15999    0.33330
 14 Li   -0.01420   -0.09330    0.47113
 15 Li    0.05739    0.01639    0.23915
 16 Li   -0.09330   -0.01420    0.47113
 17 Li   -0.02073   -0.02073    0.14953
 18 Li    0.02492    0.02492   -0.01518
 19 Li    0.03571   -0.01183   -0.02648
 20 Li    0.00148   -0.00847   -0.00322
 21 Li   -0.01183    0.03571   -0.02648
 22 Li    0.00492    0.00492   -0.00611
 23 Li    0.00551   -0.01430   -0.01193
 24 Li   -0.00847    0.00148   -0.00322
 25 Li   -0.01430    0.00551   -0.01193
 26 Li   -0.00113   -0.00113   -0.01387
 27 Li    0.00450    0.00450    0.00922
 28 Li   -0.00821    0.01739    0.00606
 29 Li    0.01182    0.02159   -0.02235
 30 Li    0.01739   -0.00821    0.00606
 31 Li    0.03391    0.03391    0.02047
 32 Li    0.00515   -0.01089   -0.00215
 33 Li    0.02159    0.01182   -0.02235
 34 Li   -0.01089    0.00515   -0.00215
 35 Li    0.00298    0.00298   -0.00961
 36 N    -0.04069   -0.04069   -0.00660
 37 N    -0.03112   -0.03112   -0.04271
 38 N     0.02177    0.02177    0.00792

System changes: positions 

Initializing position-dependent things.

Density initialized from wave functions
       .-----------------------.  
      /|                       |  
     / |                       |  
    /  |                       |  
   /   |                       |  
  /    |                       |  
 *     |                       |  
 |     |                       |  
 |     |                       |  
 |     |                       |  
 |     |                     Li|  
 |     |                       |  
 |     |               Li    N |  
 |     |   Li    Li       Li   |  
 |     |Li     Li   Li         |  
 |     |           LiN    Li   |  
 |     |         Li            |  
 | Li  Li   Li          Li     |  
 |     |                       |  
 |   LLi     LLi     LLi       |  
 |     |  Li      Li      Li   |  
 | Li  |   Li      Li          |  
 |     |Li      Li      Li     |  
 Li    | Li      Li            |  
 |    Li      Li      Li       |  
 |     |                       |  
 |     |                       |  
 |     |                       |  
 |     |                       |  
 |     |                       |  
 |     |                       |  
 |     .-----------------------.  
 |    /                       /   
 |   /                       /    
 |  /                       /     
 | /                       /      
 |/                       /       
 *-----------------------*        

Positions:
   0 Li     1.617037    1.617037   10.000000    ( 0.0000,  0.0000,  0.0000)
   1 Li     4.851111    1.617037   10.000000    ( 0.0000,  0.0000,  0.0000)
   2 Li     8.085185    1.617037   10.000000    ( 0.0000,  0.0000,  0.0000)
   3 Li     1.617037    4.851111   10.000000    ( 0.0000,  0.0000,  0.0000)
   4 Li     4.851111    4.851111   10.000000    ( 0.0000,  0.0000,  0.0000)
   5 Li     8.085185    4.851111   10.000000    ( 0.0000,  0.0000,  0.0000)
   6 Li     1.617037    8.085185   10.000000    ( 0.0000,  0.0000,  0.0000)
   7 Li     4.851111    8.085185   10.000000    ( 0.0000,  0.0000,  0.0000)
   8 Li     8.085185    8.085185   10.000000    ( 0.0000,  0.0000,  0.0000)
   9 Li     0.000000    0.000000   11.617037    ( 0.0000,  0.0000,  0.0000)
  10 Li     3.234074    0.000000   11.617037    ( 0.0000,  0.0000,  0.0000)
  11 Li     6.468148    0.000000   11.617037    ( 0.0000,  0.0000,  0.0000)
  12 Li     0.000000    3.234074   11.617037    ( 0.0000,  0.0000,  0.0000)
  13 Li     3.234074    3.234074   11.617037    ( 0.0000,  0.0000,  0.0000)
  14 Li     6.468148    3.234074   11.617037    ( 0.0000,  0.0000,  0.0000)
  15 Li     0.000000    6.468148   11.617037    ( 0.0000,  0.0000,  0.0000)
  16 Li     3.234074    6.468148   11.617037    ( 0.0000,  0.0000,  0.0000)
  17 Li     6.468148    6.468148   11.617037    ( 0.0000,  0.0000,  0.0000)
  18 Li     1.695686    1.695686   13.223119    ( 0.0000,  0.0000,  0.0000)
  19 Li     4.888347    1.183032   13.718438    ( 0.0000,  0.0000,  0.0000)
  20 Li     8.153517    0.840900   14.268619    ( 0.0000,  0.0000,  0.0000)
  21 Li     1.183032    4.888347   13.718438    ( 0.0000,  0.0000,  0.0000)
  22 Li     5.083010    5.083010   13.971725    ( 0.0000,  0.0000,  0.0000)
  23 Li     7.774774    5.313885   13.593041    ( 0.0000,  0.0000,  0.0000)
  24 Li     0.840900    8.153517   14.268619    ( 0.0000,  0.0000,  0.0000)
  25 Li     5.313885    7.774774   13.593041    ( 0.0000,  0.0000,  0.0000)
  26 Li    10.354855   10.354855   15.532359    ( 0.0000,  0.0000,  0.0000)
  27 Li    -0.717760   -0.717760   17.157775    ( 0.0000,  0.0000,  0.0000)
  28 Li     4.905358    2.832488   16.661712    ( 0.0000,  0.0000,  0.0000)
  29 Li     6.877748   -1.172388   15.514186    ( 0.0000,  0.0000,  0.0000)
  30 Li     2.832488    4.905358   16.661712    ( 0.0000,  0.0000,  0.0000)
  31 Li     3.401970    3.401970   14.725765    ( 0.0000,  0.0000,  0.0000)
  32 Li     6.461492    4.894866   15.859311    ( 0.0000,  0.0000,  0.0000)
  33 Li    -1.172388    6.877748   15.514186    ( 0.0000,  0.0000,  0.0000)
  34 Li     4.894866    6.461492   15.859311    ( 0.0000,  0.0000,  0.0000)
  35 Li     7.995898    7.995898   13.549672    ( 0.0000,  0.0000,  0.0000)
  36 N      8.928090    8.928090   15.294252    ( 0.0000,  0.0000,  0.0000)
  37 N      4.503337    4.503337   15.883528    ( 0.0000,  0.0000,  0.0000)
  38 N      6.606986    6.606986   14.654562    ( 0.0000,  0.0000,  0.0000)

Unit cell:
           periodic     x           y           z      points  spacing
  1. axis:    yes    9.702222    0.000000    0.000000    60     0.1617
  2. axis:    yes    0.000000    9.702222    0.000000    60     0.1617
  3. axis:    no     0.000000    0.000000   24.851111   156     0.1593

  Lengths:   9.702222   9.702222  24.851111
  Angles:   90.000000  90.000000  90.000000

Effective grid spacing dv^(1/3) = 0.1609

     iter     time        total  log10-change:
                         energy  eigst   dens
iter:   1 04:37:56  -250.795556  -1.90
iter:   2 04:38:54  -250.789761  -2.38  -2.05
iter:   3 04:40:47  -250.788060c -3.20  -2.33
iter:   4 04:41:52  -250.788108c -3.24  -2.72
Writing to output.gpw (mode='')

iter:   5 04:42:48  -250.788166c -3.34  -2.99
iter:   6 04:43:37  -250.788009c -3.63  -3.06
iter:   7 04:44:31  -250.788066c -3.55  -3.27
iter:   8 04:45:26  -250.788064c -4.24  -3.40
iter:   9 04:48:37  -250.788044c -4.38  -3.59
Writing to output.gpw (mode='')

iter:  10 04:50:15  -250.788044c -4.82  -3.70
iter:  11 04:51:52  -250.788038c -4.96  -3.74
iter:  12 04:53:13  -250.788028c -5.01  -3.74
iter:  13 04:53:55  -250.788035c -5.33  -3.83
iter:  14 04:55:17  -250.788043c -5.42  -3.94
Writing to output.gpw (mode='')

iter:  15 04:57:09  -250.788036c -5.50  -3.96
iter:  16 04:58:51  -250.788032c -5.63  -4.04c
iter:  17 05:01:09  -250.788032c -6.02  -4.43c
iter:  18 05:03:20  -250.788034c -6.28  -4.43c
iter:  19 05:04:31  -250.788038c -6.04  -4.45c
Writing to output.gpw (mode='')

iter:  20 05:05:42  -250.788037c -6.33  -4.68c
iter:  21 05:06:52  -250.788037c -6.62  -4.69c
iter:  22 05:08:06  -250.788035c -6.64  -4.70c
iter:  23 05:08:59  -250.788034c -6.73  -4.87c
iter:  24 05:10:15  -250.788037c -6.72  -4.96c
Writing to output.gpw (mode='')

iter:  25 05:12:09  -250.788036c -7.19  -4.94c
iter:  26 05:13:23  -250.788036c -7.22  -5.11c
iter:  27 05:14:29  -250.788036c -7.33  -5.18c
iter:  28 05:16:22  -250.788036c -7.34  -5.30c
iter:  29 05:18:18  -250.788036c -7.53c -5.44c

Converged after 29 iterations.

Dipole moment: (-0.742746, -0.742746, 0.387032) |e|*Ang

Energy contributions relative to reference atoms: (reference = -11745.526041)

Kinetic:        +97.413388
Potential:      -82.994313
External:        +0.000000
XC:            -265.707254
Entropy (-ST):   -0.182737
Local:           +0.591513
--------------------------
Free energy:   -250.879404
Extrapolated:  -250.788036

Dipole-layer corrected work functions: 3.400822, 2.656813 eV

Showing only first 2 kpts
 Kpt  Band  Eigenvalues  Occupancy
  0    23     -3.41610    1.99914
  0    24     -3.30488    1.99203
  0    25     -3.10597    1.64781
  0    26     -2.91717    0.19367

  1    23     -3.44018    1.99947
  1    24     -3.15814    1.85997
  1    25     -3.11855    1.71499
  1    26     -3.01900    0.90212


Fermi level: -3.02882

No gap
Writing to output.gpw (mode='')


Forces in eV/Ang:
  0 Li    0.01634    0.01634   -0.31490
  1 Li   -0.02286    0.01086   -0.32961
  2 Li    0.00750   -0.00315   -0.34443
  3 Li    0.01086   -0.02286   -0.32961
  4 Li    0.00224    0.00224   -0.28874
  5 Li    0.00083    0.00022   -0.27381
  6 Li   -0.00315    0.00750   -0.34443
  7 Li    0.00022    0.00083   -0.27381
  8 Li   -0.00203   -0.00203   -0.26458
  9 Li   -0.05832   -0.05832    0.29678
 10 Li    0.04202   -0.22366    0.37649
 11 Li    0.01823    0.05504    0.23701
 12 Li   -0.22366    0.04202    0.37649
 13 Li    0.16192    0.16192    0.33111
 14 Li   -0.01394   -0.09408    0.47040
 15 Li    0.05504    0.01823    0.23701
 16 Li   -0.09408   -0.01394    0.47040
 17 Li   -0.02022   -0.02022    0.15223
 18 Li    0.02684    0.02684   -0.01251
 19 Li    0.02868   -0.00104   -0.01993
 20 Li   -0.00116   -0.01644   -0.00473
 21 Li   -0.00104    0.02868   -0.01993
 22 Li    0.00977    0.00977   -0.00558
 23 Li    0.00472   -0.00701   -0.01443
 24 Li   -0.01644   -0.00116   -0.00473
 25 Li   -0.00701    0.00472   -0.01443
 26 Li   -0.00992   -0.00992   -0.00596
 27 Li    0.00722    0.00722    0.00504
 28 Li   -0.00202    0.02232    0.00204
 29 Li    0.01157    0.00899   -0.01595
 30 Li    0.02232   -0.00202    0.00204
 31 Li    0.01234    0.01234   -0.00968
 32 Li    0.00304   -0.00763    0.00047
 33 Li    0.00899    0.01157   -0.01595
 34 Li   -0.00763    0.00304    0.00047
 35 Li    0.00563    0.00563   -0.01869
 36 N    -0.02179   -0.02179   -0.01505
 37 N    -0.01939   -0.01939   -0.02056
 38 N    -0.00714   -0.00714   -0.01004

Timing:                                      incl.     excl.
-------------------------------------------------------------------
Density initialized from wave functions:    46.959    42.453   0.1% |
 Symmetrize density:                         4.506     4.506   0.0% |
Forces:                                     59.685    59.685   0.1% |
Hamiltonian:                              1230.522     0.003   0.0% |
 Atomic:                                     1.806     0.027   0.0% |
  XC Correction:                             1.779     1.779   0.0% |
 Calculate atomic Hamiltonians:              0.964     0.964   0.0% |
 Communicate:                               10.234    10.234   0.0% |
 Hartree integrate/restrict:                 3.815     3.815   0.0% |
 Poisson:                                   20.988     6.157   0.0% |
  Communicate from 1D:                       4.737     4.737   0.0% |
  Communicate from 2D:                       4.153     4.153   0.0% |
  Communicate to 1D:                         1.291     1.291   0.0% |
  Communicate to 2D:                         3.364     3.364   0.0% |
  FFT 1D:                                    0.687     0.687   0.0% |
  FFT 2D:                                    0.600     0.600   0.0% |
 XC 3D grid:                              1192.681    61.766   0.1% |
  VdW-DF integral:                        1130.915     1.963   0.0% |
   Convolution:                             24.418    24.418   0.0% |
   FFT:                                      9.773     9.773   0.0% |
   gather:                                 845.015   845.015   1.1% |
   hmm1:                                     8.243     8.243   0.0% |
   hmm2:                                     9.392     9.392   0.0% |
   iFFT:                                     9.880     9.880   0.0% |
   potential:                              209.601     0.757   0.0% |
    collect:                                53.137    53.137   0.1% |
    p1:                                     29.754    29.754   0.0% |
    p2:                                     11.978    11.978   0.0% |
    sum:                                   113.974   113.974   0.2% |
   splines:                                 12.631    12.631   0.0% |
 vbar:                                       0.032     0.032   0.0% |
LCAO initialization:                         2.056     0.158   0.0% |
 LCAO eigensolver:                           0.728     0.001   0.0% |
  Calculate projections:                     0.000     0.000   0.0% |
  DenseAtomicCorrection:                     0.000     0.000   0.0% |
  Distribute overlap matrix:                 0.628     0.628   0.0% |
  Orbital Layouts:                           0.098     0.098   0.0% |
  Potential matrix:                          0.000     0.000   0.0% |
  Sum over cells:                            0.002     0.002   0.0% |
 LCAO to grid:                               0.706     0.706   0.0% |
 Set positions (LCAO WFS):                   0.464     0.237   0.0% |
  Basic WFS set positions:                   0.005     0.005   0.0% |
  Basis functions set positions:             0.000     0.000   0.0% |
  P tci:                                     0.001     0.001   0.0% |
  ST tci:                                    0.092     0.092   0.0% |
  mktci:                                     0.130     0.130   0.0% |
Redistribute:                                0.024     0.024   0.0% |
SCF-cycle:                               73015.679 11693.047  15.7% |-----|
 Davidson:                               19377.198 13688.367  18.4% |------|
  Apply hamiltonian:                       931.253   931.253   1.3% ||
  Subspace diag:                          1315.974     0.398   0.0% |
   calc_h_matrix:                          953.696    52.597   0.1% |
    Apply hamiltonian:                     901.099   901.099   1.2% |
   diagonalize:                            220.277   220.277   0.3% |
   rotate_psi:                             141.603   141.603   0.2% |
  calc. matrices:                         3063.734  1120.342   1.5% ||
   Apply hamiltonian:                     1943.391  1943.391   2.6% ||
  diagonalize:                               8.264     8.264   0.0% |
  rotate_psi:                              369.606   369.606   0.5% |
 Density:                                  299.907     0.020   0.0% |
  Atomic density matrices:                  15.003    15.003   0.0% |
  Mix:                                      91.556    91.556   0.1% |
  Multipole moments:                         4.876     4.876   0.0% |
  Pseudo density:                          188.452    15.636   0.0% |
   Symmetrize density:                     172.816   172.816   0.2% |
 Hamiltonian:                            41635.692     0.120   0.0% |
  Atomic:                                   58.694     0.569   0.0% |
   XC Correction:                           58.124    58.124   0.1% |
  Calculate atomic Hamiltonians:            68.246    68.246   0.1% |
  Communicate:                             515.106   515.106   0.7% |
  Hartree integrate/restrict:               79.747    79.747   0.1% |
  Poisson:                                 660.151   201.191   0.3% |
   Communicate from 1D:                    121.754   121.754   0.2% |
   Communicate from 2D:                    141.556   141.556   0.2% |
   Communicate to 1D:                       39.711    39.711   0.1% |
   Communicate to 2D:                      114.166   114.166   0.2% |
   FFT 1D:                                  21.951    21.951   0.0% |
   FFT 2D:                                  19.822    19.822   0.0% |
  XC 3D grid:                            40252.680  2383.285   3.2% ||
   VdW-DF integral:                      37869.395    62.194   0.1% |
    Convolution:                           829.165   829.165   1.1% |
    FFT:                                   328.142   328.142   0.4% |
    gather:                              29739.810 29739.810  39.9% |---------------|
    hmm1:                                  263.754   263.754   0.4% |
    hmm2:                                  302.563   302.563   0.4% |
    iFFT:                                  337.004   337.004   0.5% |
    potential:                            6006.756    26.060   0.0% |
     collect:                             1469.374  1469.374   2.0% ||
     p1:                                  1039.127  1039.127   1.4% ||
     p2:                                   408.798   408.798   0.5% |
     sum:                                 3063.396  3063.396   4.1% |-|
    splines:                                 0.007     0.007   0.0% |
  vbar:                                      0.949     0.949   0.0% |
 Orthonormalize:                             9.836     0.012   0.0% |
  calc_s_matrix:                             0.917     0.917   0.0% |
  inverse-cholesky:                          6.930     6.930   0.0% |
  projections:                               0.003     0.003   0.0% |
  rotate_psi_s:                              1.973     1.973   0.0% |
Set symmetry:                                0.003     0.003   0.0% |
Other:                                     120.131   120.131   0.2% |
-------------------------------------------------------------------
Total:                                             74475.060 100.0%

Memory usage: 1.07 GiB
Date: Tue Feb 14 05:18:20 2023
